 Entering Gaussian System, Link 0=/usr/local/apps/gaussian-16.B.01/avx2/g16/g16
 Initial command:
 /usr/local/apps/gaussian-16.B.01/avx2/g16/l1.exe "/projectnb/cui-buchem/tanmoy/projects/FERRO/ferro/gauche/Gau-193066.inp" -scrdir="/projectnb/cui-buchem/tanmoy/projects/FERRO/ferro/gauche/"
 Entering Link 1 = /usr/local/apps/gaussian-16.B.01/avx2/g16/l1.exe PID=    193074.
  
 Copyright (c) 1988-2017, Gaussian, Inc.  All Rights Reserved.
  
 This is part of the Gaussian(R) 16 program.  It is based on
 the Gaussian(R) 09 system (copyright 2009, Gaussian, Inc.),
 the Gaussian(R) 03 system (copyright 2003, Gaussian, Inc.),
 the Gaussian(R) 98 system (copyright 1998, Gaussian, Inc.),
 the Gaussian(R) 94 system (copyright 1995, Gaussian, Inc.),
 the Gaussian 92(TM) system (copyright 1992, Gaussian, Inc.),
 the Gaussian 90(TM) system (copyright 1990, Gaussian, Inc.),
 the Gaussian 88(TM) system (copyright 1988, Gaussian, Inc.),
 the Gaussian 86(TM) system (copyright 1986, Carnegie Mellon
 University), and the Gaussian 82(TM) system (copyright 1983,
 Carnegie Mellon University). Gaussian is a federally registered
 trademark of Gaussian, Inc.
  
 This software contains proprietary and confidential information,
 including trade secrets, belonging to Gaussian, Inc.
  
 This software is provided under written license and may be
 used, copied, transmitted, or stored only in accord with that
 written license.
  
 The following legend is applicable only to US Government
 contracts under FAR:
  
                    RESTRICTED RIGHTS LEGEND
  
 Use, reproduction and disclosure by the US Government is
 subject to restrictions as set forth in subparagraphs (a)
 and (c) of the Commercial Computer Software - Restricted
 Rights clause in FAR 52.227-19.
  
 Gaussian, Inc.
 340 Quinnipiac St., Bldg. 40, Wallingford CT 06492
  
  
 ---------------------------------------------------------------
 Warning -- This program may not be used in any manner that
 competes with the business of Gaussian, Inc. or will provide
 assistance to any competitor of Gaussian, Inc.  The licensee
 of this program is prohibited from giving any competitor of
 Gaussian, Inc. access to this program.  By using this program,
 the user acknowledges that Gaussian, Inc. is engaged in the
 business of creating and licensing software in the field of
 computational chemistry and represents and warrants to the
 licensee that it is not a competitor of Gaussian, Inc. and that
 it will not use this program in any manner prohibited above.
 ---------------------------------------------------------------
  

 Cite this work as:
 Gaussian 16, Revision B.01,
 M. J. Frisch, G. W. Trucks, H. B. Schlegel, G. E. Scuseria, 
 M. A. Robb, J. R. Cheeseman, G. Scalmani, V. Barone, 
 G. A. Petersson, H. Nakatsuji, X. Li, M. Caricato, A. V. Marenich, 
 J. Bloino, B. G. Janesko, R. Gomperts, B. Mennucci, H. P. Hratchian, 
 J. V. Ortiz, A. F. Izmaylov, J. L. Sonnenberg, D. Williams-Young, 
 F. Ding, F. Lipparini, F. Egidi, J. Goings, B. Peng, A. Petrone, 
 T. Henderson, D. Ranasinghe, V. G. Zakrzewski, J. Gao, N. Rega, 
 G. Zheng, W. Liang, M. Hada, M. Ehara, K. Toyota, R. Fukuda, 
 J. Hasegawa, M. Ishida, T. Nakajima, Y. Honda, O. Kitao, H. Nakai, 
 T. Vreven, K. Throssell, J. A. Montgomery, Jr., J. E. Peralta, 
 F. Ogliaro, M. J. Bearpark, J. J. Heyd, E. N. Brothers, K. N. Kudin, 
 V. N. Staroverov, T. A. Keith, R. Kobayashi, J. Normand, 
 K. Raghavachari, A. P. Rendell, J. C. Burant, S. S. Iyengar, 
 J. Tomasi, M. Cossi, J. M. Millam, M. Klene, C. Adamo, R. Cammi, 
 J. W. Ochterski, R. L. Martin, K. Morokuma, O. Farkas, 
 J. B. Foresman, and D. J. Fox, Gaussian, Inc., Wallingford CT, 2016.
 
 ******************************************
 Gaussian 16:  ES64L-G16RevB.01 20-Dec-2017
                28-Apr-2021 
 ******************************************
 %nprocshared=16
 Will use up to   16 processors via shared memory.
 %mem=16GB
 %chk=ferro_gauche.chk
 -----------------------
 # opt b3lyp/aug-cc-pvdz
 -----------------------
 1/18=20,19=15,26=3,38=1/1,3;
 2/9=110,12=2,17=6,18=5,40=1/2;
 3/5=16,7=10,11=2,25=1,30=1,71=1,74=-5/1,2,3;
 4//1;
 5/5=2,38=5/2;
 6/7=2,8=2,9=2,10=2,28=1/1;
 7//1,2,3,16;
 1/18=20,19=15,26=3/3(2);
 2/9=110/2;
 99//99;
 2/9=110/2;
 3/5=16,7=10,11=2,25=1,30=1,71=1,74=-5/1,2,3;
 4/5=5,16=3,69=1/1;
 5/5=2,38=5/2;
 7//1,2,3,16;
 1/18=20,19=15,26=3/3(-5);
 2/9=110/2;
 6/7=2,8=2,9=2,10=2,19=2,28=1/1;
 99/9=1/99;
 -------------------
 Title Card Required
 -------------------
 Symbolic Z-matrix:
 Charge =  0 Multiplicity = 1
 C                    -2.43312   0.75341   0.85526 
 C                    -2.40301   0.70149  -0.65275 
 H                    -1.84503   1.42463  -1.24326 
 C                    -3.15334  -0.34596  -1.08593 
 H                    -3.33749  -0.6594   -2.11251 
 C                    -3.31129  -0.42035   1.21411 
 H                    -3.54288  -0.67252   2.24645 
 C                    -3.71985  -1.04564   0.07839 
 H                    -4.35995  -1.9222   -0.01094 
 C                     0.22011  -1.54365  -0.47064 
 C                    -0.29066  -2.25774  -1.69819 
 H                    -0.04959  -1.91994  -2.70354 
 C                    -1.05038  -3.32034  -1.32198 
 H                    -1.56339  -4.03739  -1.96126 
 C                    -0.3617   -2.3588    0.65838 
 H                    -0.18237  -2.10892   1.70162 
 C                    -1.09471  -3.38337   0.14777 
 H                    -1.64335  -4.15107   0.69154 
 Fe                   -1.74253  -1.33965  -0.20518 
 H                    -1.95097   1.45025   1.50859 
 H                     0.84226  -0.67312  -0.46785 
 

 GradGradGradGradGradGradGradGradGradGradGradGradGradGradGradGradGradGrad
 Berny optimization.
 Initialization pass.
                           ----------------------------
                           !    Initial Parameters    !
                           ! (Angstroms and Degrees)  !
 --------------------------                            --------------------------
 ! Name  Definition              Value          Derivative Info.                !
 --------------------------------------------------------------------------------
 ! R1    R(1,2)                  1.5092         estimate D2E/DX2                !
 ! R2    R(1,6)                  1.5092         estimate D2E/DX2                !
 ! R3    R(1,20)                 1.07           estimate D2E/DX2                !
 ! R4    R(2,3)                  1.0876         estimate D2E/DX2                !
 ! R5    R(2,4)                  1.3593         estimate D2E/DX2                !
 ! R6    R(2,19)                 2.1915         estimate D2E/DX2                !
 ! R7    R(4,5)                  1.089          estimate D2E/DX2                !
 ! R8    R(4,8)                  1.4718         estimate D2E/DX2                !
 ! R9    R(4,19)                 1.9374         estimate D2E/DX2                !
 ! R10   R(6,7)                  1.0876         estimate D2E/DX2                !
 ! R11   R(6,8)                  1.3593         estimate D2E/DX2                !
 ! R12   R(6,19)                 2.3066         estimate D2E/DX2                !
 ! R13   R(8,9)                  1.0891         estimate D2E/DX2                !
 ! R14   R(8,19)                 2.0191         estimate D2E/DX2                !
 ! R15   R(10,11)                1.5092         estimate D2E/DX2                !
 ! R16   R(10,15)                1.5092         estimate D2E/DX2                !
 ! R17   R(10,19)                1.991          estimate D2E/DX2                !
 ! R18   R(10,21)                1.07           estimate D2E/DX2                !
 ! R19   R(11,12)                1.0876         estimate D2E/DX2                !
 ! R20   R(11,13)                1.3593         estimate D2E/DX2                !
 ! R21   R(11,19)                2.2759         estimate D2E/DX2                !
 ! R22   R(13,14)                1.089          estimate D2E/DX2                !
 ! R23   R(13,17)                1.4718         estimate D2E/DX2                !
 ! R24   R(15,16)                1.0876         estimate D2E/DX2                !
 ! R25   R(15,17)                1.3593         estimate D2E/DX2                !
 ! R26   R(15,19)                1.9212         estimate D2E/DX2                !
 ! R27   R(17,18)                1.0891         estimate D2E/DX2                !
 ! R28   R(17,19)                2.1728         estimate D2E/DX2                !
 ! A1    A(2,1,6)              102.853          estimate D2E/DX2                !
 ! A2    A(2,1,20)             128.5735         estimate D2E/DX2                !
 ! A3    A(6,1,20)             128.5735         estimate D2E/DX2                !
 ! A4    A(1,2,3)              121.9965         estimate D2E/DX2                !
 ! A5    A(1,2,4)              109.5061         estimate D2E/DX2                !
 ! A6    A(1,2,19)              80.4437         estimate D2E/DX2                !
 ! A7    A(3,2,4)              128.4975         estimate D2E/DX2                !
 ! A8    A(3,2,19)             125.1356         estimate D2E/DX2                !
 ! A9    A(2,4,5)              127.9886         estimate D2E/DX2                !
 ! A10   A(2,4,8)              109.0681         estimate D2E/DX2                !
 ! A11   A(5,4,8)              122.9433         estimate D2E/DX2                !
 ! A12   A(5,4,19)             113.831          estimate D2E/DX2                !
 ! A13   A(1,6,7)              121.9991         estimate D2E/DX2                !
 ! A14   A(1,6,8)              109.5107         estimate D2E/DX2                !
 ! A15   A(1,6,19)              76.5802         estimate D2E/DX2                !
 ! A16   A(7,6,8)              128.4902         estimate D2E/DX2                !
 ! A17   A(7,6,19)             129.5271         estimate D2E/DX2                !
 ! A18   A(4,8,6)              109.0622         estimate D2E/DX2                !
 ! A19   A(4,8,9)              122.9549         estimate D2E/DX2                !
 ! A20   A(6,8,9)              127.9829         estimate D2E/DX2                !
 ! A21   A(9,8,19)             116.543          estimate D2E/DX2                !
 ! A22   A(11,10,15)           102.853          estimate D2E/DX2                !
 ! A23   A(11,10,21)           125.7223         estimate D2E/DX2                !
 ! A24   A(15,10,21)           131.4248         estimate D2E/DX2                !
 ! A25   A(19,10,21)           119.305          estimate D2E/DX2                !
 ! A26   A(10,11,12)           121.9965         estimate D2E/DX2                !
 ! A27   A(10,11,13)           109.5061         estimate D2E/DX2                !
 ! A28   A(12,11,13)           128.4975         estimate D2E/DX2                !
 ! A29   A(12,11,19)           128.4969         estimate D2E/DX2                !
 ! A30   A(13,11,19)            77.1297         estimate D2E/DX2                !
 ! A31   A(11,13,14)           127.9886         estimate D2E/DX2                !
 ! A32   A(11,13,17)           109.0681         estimate D2E/DX2                !
 ! A33   A(14,13,17)           122.9433         estimate D2E/DX2                !
 ! A34   A(10,15,16)           121.9991         estimate D2E/DX2                !
 ! A35   A(10,15,17)           109.5107         estimate D2E/DX2                !
 ! A36   A(16,15,17)           128.4902         estimate D2E/DX2                !
 ! A37   A(16,15,19)           115.3261         estimate D2E/DX2                !
 ! A38   A(13,17,15)           109.0622         estimate D2E/DX2                !
 ! A39   A(13,17,18)           122.9549         estimate D2E/DX2                !
 ! A40   A(13,17,19)            78.8417         estimate D2E/DX2                !
 ! A41   A(15,17,18)           127.9829         estimate D2E/DX2                !
 ! A42   A(18,17,19)           126.4378         estimate D2E/DX2                !
 ! A43   A(2,19,6)              63.2241         estimate D2E/DX2                !
 ! A44   A(2,19,8)              66.2914         estimate D2E/DX2                !
 ! A45   A(2,19,10)            111.425          estimate D2E/DX2                !
 ! A46   A(2,19,11)            115.7209         estimate D2E/DX2                !
 ! A47   A(2,19,15)            143.3666         estimate D2E/DX2                !
 ! A48   A(4,19,6)              65.1689         estimate D2E/DX2                !
 ! A49   A(4,19,10)            135.2159         estimate D2E/DX2                !
 ! A50   A(4,19,11)            111.9137         estimate D2E/DX2                !
 ! A51   A(4,19,17)            140.6592         estimate D2E/DX2                !
 ! A52   A(6,19,10)            142.4952         estimate D2E/DX2                !
 ! A53   A(6,19,15)            115.0656         estimate D2E/DX2                !
 ! A54   A(6,19,17)            118.5349         estimate D2E/DX2                !
 ! A55   A(8,19,11)            140.8597         estimate D2E/DX2                !
 ! A56   A(8,19,15)            135.888          estimate D2E/DX2                !
 ! A57   A(8,19,17)            113.9625         estimate D2E/DX2                !
 ! A58   A(10,19,17)            68.3694         estimate D2E/DX2                !
 ! A59   A(11,19,15)            67.814          estimate D2E/DX2                !
 ! A60   A(11,19,17)            62.4151         estimate D2E/DX2                !
 ! A61   L(2,19,17,6,-1)       181.759          estimate D2E/DX2                !
 ! A62   L(4,19,15,11,-1)      179.7277         estimate D2E/DX2                !
 ! A63   L(6,19,11,2,-1)       178.9451         estimate D2E/DX2                !
 ! A64   L(8,19,10,17,-1)      182.3319         estimate D2E/DX2                !
 ! A65   L(2,19,17,6,-2)       178.0602         estimate D2E/DX2                !
 ! A66   L(4,19,15,11,-2)      181.2396         estimate D2E/DX2                !
 ! A67   L(6,19,11,2,-2)       183.5689         estimate D2E/DX2                !
 ! A68   L(8,19,10,17,-2)      181.0738         estimate D2E/DX2                !
 ! D1    D(6,1,2,3)           -179.9884         estimate D2E/DX2                !
 ! D2    D(6,1,2,4)              0.0273         estimate D2E/DX2                !
 ! D3    D(6,1,2,19)           -54.3285         estimate D2E/DX2                !
 ! D4    D(20,1,2,3)             0.0116         estimate D2E/DX2                !
 ! D5    D(20,1,2,4)          -179.9727         estimate D2E/DX2                !
 ! D6    D(20,1,2,19)          125.6715         estimate D2E/DX2                !
 ! D7    D(2,1,6,7)            179.9851         estimate D2E/DX2                !
 ! D8    D(2,1,6,8)             -0.0284         estimate D2E/DX2                !
 ! D9    D(2,1,6,19)            51.4897         estimate D2E/DX2                !
 ! D10   D(20,1,6,7)            -0.0149         estimate D2E/DX2                !
 ! D11   D(20,1,6,8)           179.9716         estimate D2E/DX2                !
 ! D12   D(20,1,6,19)         -128.5103         estimate D2E/DX2                !
 ! D13   D(1,2,4,5)            179.988          estimate D2E/DX2                !
 ! D14   D(1,2,4,8)             -0.017          estimate D2E/DX2                !
 ! D15   D(3,2,4,5)              0.005          estimate D2E/DX2                !
 ! D16   D(3,2,4,8)            180.0            estimate D2E/DX2                !
 ! D17   D(1,2,19,6)            35.482          estimate D2E/DX2                !
 ! D18   D(1,2,19,8)            75.1346         estimate D2E/DX2                !
 ! D19   D(1,2,19,10)         -103.6776         estimate D2E/DX2                !
 ! D20   D(1,2,19,11)         -148.0869         estimate D2E/DX2                !
 ! D21   D(1,2,19,15)          -61.2168         estimate D2E/DX2                !
 ! D22   D(3,2,19,6)           158.068          estimate D2E/DX2                !
 ! D23   D(3,2,19,8)          -162.2794         estimate D2E/DX2                !
 ! D24   D(3,2,19,10)           18.9084         estimate D2E/DX2                !
 ! D25   D(3,2,19,11)          -25.5009         estimate D2E/DX2                !
 ! D26   D(3,2,19,15)           61.3692         estimate D2E/DX2                !
 ! D27   D(2,4,8,6)             -0.0017         estimate D2E/DX2                !
 ! D28   D(2,4,8,9)           -179.9952         estimate D2E/DX2                !
 ! D29   D(5,4,8,6)            179.9936         estimate D2E/DX2                !
 ! D30   D(5,4,8,9)              0.0001         estimate D2E/DX2                !
 ! D31   D(5,4,19,6)          -154.5157         estimate D2E/DX2                !
 ! D32   D(5,4,19,10)           64.7114         estimate D2E/DX2                !
 ! D33   D(5,4,19,11)           23.646          estimate D2E/DX2                !
 ! D34   D(5,4,19,17)          -49.1019         estimate D2E/DX2                !
 ! D35   D(1,6,8,4)              0.0197         estimate D2E/DX2                !
 ! D36   D(1,6,8,9)           -179.9872         estimate D2E/DX2                !
 ! D37   D(7,6,8,4)           -179.9949         estimate D2E/DX2                !
 ! D38   D(7,6,8,9)             -0.0018         estimate D2E/DX2                !
 ! D39   D(1,6,19,2)           -36.048          estimate D2E/DX2                !
 ! D40   D(1,6,19,4)           -78.1858         estimate D2E/DX2                !
 ! D41   D(1,6,19,10)           54.7846         estimate D2E/DX2                !
 ! D42   D(1,6,19,15)          103.0905         estimate D2E/DX2                !
 ! D43   D(1,6,19,17)          145.8918         estimate D2E/DX2                !
 ! D44   D(7,6,19,2)          -156.6731         estimate D2E/DX2                !
 ! D45   D(7,6,19,4)           161.1891         estimate D2E/DX2                !
 ! D46   D(7,6,19,10)          -65.8405         estimate D2E/DX2                !
 ! D47   D(7,6,19,15)          -17.5346         estimate D2E/DX2                !
 ! D48   D(7,6,19,17)           25.2667         estimate D2E/DX2                !
 ! D49   D(9,8,19,2)           153.8789         estimate D2E/DX2                !
 ! D50   D(9,8,19,11)           51.6793         estimate D2E/DX2                !
 ! D51   D(9,8,19,15)          -62.3985         estimate D2E/DX2                !
 ! D52   D(9,8,19,17)          -23.4474         estimate D2E/DX2                !
 ! D53   D(15,10,11,12)       -179.9884         estimate D2E/DX2                !
 ! D54   D(15,10,11,13)          0.0273         estimate D2E/DX2                !
 ! D55   D(21,10,11,12)          0.0            estimate D2E/DX2                !
 ! D56   D(21,10,11,13)       -179.9843         estimate D2E/DX2                !
 ! D57   D(11,10,15,16)        179.9851         estimate D2E/DX2                !
 ! D58   D(11,10,15,17)         -0.0284         estimate D2E/DX2                !
 ! D59   D(21,10,15,16)         -0.0024         estimate D2E/DX2                !
 ! D60   D(21,10,15,17)        179.9842         estimate D2E/DX2                !
 ! D61   D(21,10,19,2)          20.4157         estimate D2E/DX2                !
 ! D62   D(21,10,19,4)          56.3831         estimate D2E/DX2                !
 ! D63   D(21,10,19,6)         -53.1102         estimate D2E/DX2                !
 ! D64   D(21,10,19,17)       -162.2183         estimate D2E/DX2                !
 ! D65   D(10,11,13,14)        179.988          estimate D2E/DX2                !
 ! D66   D(10,11,13,17)         -0.017          estimate D2E/DX2                !
 ! D67   D(12,11,13,14)          0.005          estimate D2E/DX2                !
 ! D68   D(12,11,13,17)        180.0            estimate D2E/DX2                !
 ! D69   D(19,11,13,14)        129.3598         estimate D2E/DX2                !
 ! D70   D(19,11,13,17)        -50.6452         estimate D2E/DX2                !
 ! D71   D(12,11,19,2)         -14.8972         estimate D2E/DX2                !
 ! D72   D(12,11,19,4)          26.3912         estimate D2E/DX2                !
 ! D73   D(12,11,19,8)          68.4906         estimate D2E/DX2                !
 ! D74   D(12,11,19,15)       -154.8483         estimate D2E/DX2                !
 ! D75   D(12,11,19,17)        163.3083         estimate D2E/DX2                !
 ! D76   D(13,11,19,2)        -144.2526         estimate D2E/DX2                !
 ! D77   D(13,11,19,4)        -102.9641         estimate D2E/DX2                !
 ! D78   D(13,11,19,8)         -60.8647         estimate D2E/DX2                !
 ! D79   D(13,11,19,15)         75.7963         estimate D2E/DX2                !
 ! D80   D(13,11,19,17)         33.9529         estimate D2E/DX2                !
 ! D81   D(11,13,17,15)         -0.0017         estimate D2E/DX2                !
 ! D82   D(11,13,17,18)       -179.9952         estimate D2E/DX2                !
 ! D83   D(11,13,17,19)         53.5915         estimate D2E/DX2                !
 ! D84   D(14,13,17,15)        179.9936         estimate D2E/DX2                !
 ! D85   D(14,13,17,18)          0.0001         estimate D2E/DX2                !
 ! D86   D(14,13,17,19)       -126.4133         estimate D2E/DX2                !
 ! D87   D(10,15,17,13)          0.0197         estimate D2E/DX2                !
 ! D88   D(10,15,17,18)       -179.9872         estimate D2E/DX2                !
 ! D89   D(16,15,17,13)       -179.9949         estimate D2E/DX2                !
 ! D90   D(16,15,17,18)         -0.0018         estimate D2E/DX2                !
 ! D91   D(16,15,19,2)          54.6991         estimate D2E/DX2                !
 ! D92   D(16,15,19,6)         -23.5007         estimate D2E/DX2                !
 ! D93   D(16,15,19,8)         -60.0796         estimate D2E/DX2                !
 ! D94   D(16,15,19,11)        158.4106         estimate D2E/DX2                !
 ! D95   D(13,17,19,4)          60.7028         estimate D2E/DX2                !
 ! D96   D(13,17,19,6)         145.5002         estimate D2E/DX2                !
 ! D97   D(13,17,19,8)         105.6675         estimate D2E/DX2                !
 ! D98   D(13,17,19,10)        -75.4063         estimate D2E/DX2                !
 ! D99   D(13,17,19,11)        -30.8355         estimate D2E/DX2                !
 ! D100  D(18,17,19,4)         -62.2243         estimate D2E/DX2                !
 ! D101  D(18,17,19,6)          22.5731         estimate D2E/DX2                !
 ! D102  D(18,17,19,8)         -17.2596         estimate D2E/DX2                !
 ! D103  D(18,17,19,10)        161.6666         estimate D2E/DX2                !
 ! D104  D(18,17,19,11)       -153.7626         estimate D2E/DX2                !
 --------------------------------------------------------------------------------
 Trust Radius=3.00D-01 FncErr=1.00D-07 GrdErr=1.00D-06 EigMax=2.50D+02 EigMin=1.00D-04
 Number of steps in this run=    126 maximum allowed number of steps=    126.
 GradGradGradGradGradGradGradGradGradGradGradGradGradGradGradGradGradGrad

                          Input orientation:                          
 ---------------------------------------------------------------------
 Center     Atomic      Atomic             Coordinates (Angstroms)
 Number     Number       Type             X           Y           Z
 ---------------------------------------------------------------------
      1          6           0       -2.433121    0.753406    0.855258
      2          6           0       -2.403005    0.701495   -0.652751
      3          1           0       -1.845033    1.424629   -1.243262
      4          6           0       -3.153342   -0.345961   -1.085931
      5          1           0       -3.337490   -0.659405   -2.112509
      6          6           0       -3.311289   -0.420355    1.214112
      7          1           0       -3.542876   -0.672521    2.246453
      8          6           0       -3.719852   -1.045639    0.078389
      9          1           0       -4.359945   -1.922199   -0.010943
     10          6           0        0.220109   -1.543651   -0.470641
     11          6           0       -0.290662   -2.257742   -1.698192
     12          1           0       -0.049590   -1.919935   -2.703542
     13          6           0       -1.050375   -3.320341   -1.321983
     14          1           0       -1.563393   -4.037393   -1.961255
     15          6           0       -0.361700   -2.358802    0.658383
     16          1           0       -0.182369   -2.108921    1.701623
     17          6           0       -1.094711   -3.383373    0.147774
     18          1           0       -1.643354   -4.151075    0.691541
     19         26           0       -1.742533   -1.339651   -0.205179
     20          1           0       -1.950971    1.450247    1.508591
     21          1           0        0.842256   -0.673120   -0.467851
 ---------------------------------------------------------------------
                    Distance matrix (angstroms):
                    1          2          3          4          5
     1  C    0.000000
     2  C    1.509203   0.000000
     3  H    2.280389   1.087640   0.000000
     4  C    2.344257   1.359343   2.207128   0.000000
     5  H    3.409041   2.203679   2.706698   1.089045   0.000000
     6  C    1.509195   2.359810   3.404785   2.306660   3.335302
     7  H    2.280406   3.404793   4.411216   3.370929   4.363818
     8  C    2.344305   2.306757   3.371043   1.471776   2.257302
     9  H    3.409079   3.335461   4.364019   2.257437   2.656435
    10  C    3.751547   3.457538   3.697626   3.632246   4.016731
    11  C    4.491909   3.783123   4.022796   3.496385   3.465472
    12  H    5.049062   4.076298   4.067203   3.837621   3.570510
    13  C    4.821595   4.295654   4.811696   3.650360   3.596722
    14  H    5.625027   4.987403   5.516205   4.113490   3.818520
    15  C    3.743713   3.905306   4.486745   3.858423   4.406940
    16  H    3.738333   4.286344   4.891092   4.439051   5.157857
    17  C    4.405090   4.363327   5.061111   3.871158   4.190339
    18  H    4.970359   5.092310   5.905304   4.463000   4.787959
    19  Fe   2.445879   2.191534   2.954550   1.937402   2.577698
    20  H    1.070000   2.331602   2.754011   3.376922   4.414231
    21  H    3.809684   3.529232   3.496189   4.056336   4.491700
                    6          7          8          9         10
     6  C    0.000000
     7  H    1.087635   0.000000
     8  C    1.359328   2.207044   0.000000
     9  H    2.203628   2.706498   1.089062   0.000000
    10  C    4.070743   4.722449   4.009082   4.618605   0.000000
    11  C    4.580577   5.352574   4.047811   4.417970   1.509203
    12  H    5.313702   6.185592   4.687681   5.082250   2.280389
    13  C    4.466926   5.094826   3.776429   3.824510   2.344257
    14  H    5.120650   5.739819   4.214386   4.012289   3.409041
    15  C    3.573022   3.935148   3.652119   4.077325   1.509195
    16  H    3.588741   3.695010   4.034755   4.518837   2.280406
    17  C    3.850944   4.212681   3.515847   3.580778   2.344305
    18  H    4.119873   4.257496   3.785701   3.583467   3.409079
    19  Fe   2.306618   3.113969   2.019070   2.688482   1.990992
    20  H    2.331594   2.754042   3.376961   4.414242   4.194565
    21  H    4.488299   5.157212   4.609770   5.369531   1.070000
                   11         12         13         14         15
    11  C    0.000000
    12  H    1.087640   0.000000
    13  C    1.359343   2.207128   0.000000
    14  H    2.203679   2.706698   1.089045   0.000000
    15  C    2.359810   3.404785   2.306660   3.335302   0.000000
    16  H    3.404793   4.411216   3.370929   4.363818   1.087635
    17  C    2.306757   3.371043   1.471776   2.257302   1.359328
    18  H    3.335461   4.364019   2.257437   2.656435   2.203628
    19  Fe   2.275941   3.073207   2.376861   3.223927   1.921226
    20  H    5.175835   5.719742   5.619763   6.504171   4.213964
    21  H    2.303969   2.710767   3.364428   4.397242   2.357846
                   16         17         18         19         20
    16  H    0.000000
    17  C    2.207044   0.000000
    18  H    2.706498   1.089062   0.000000
    19  Fe   2.581043   2.172798   2.952634   0.000000
    20  H    3.979057   5.094005   5.668951   3.280851   0.000000
    21  H    2.796069   3.387670   4.429291   2.682237   4.027050
                   21
    21  H    0.000000
 Stoichiometry    C10H10Fe
 Framework group  C1[X(C10H10Fe)]
 Deg. of freedom    57
 Full point group                 C1      NOp   1
 Largest Abelian subgroup         C1      NOp   1
 Largest concise Abelian subgroup C1      NOp   1
                         Standard orientation:                         
 ---------------------------------------------------------------------
 Center     Atomic      Atomic             Coordinates (Angstroms)
 Number     Number       Type             X           Y           Z
 ---------------------------------------------------------------------
      1          6           0       -2.221357    0.188276    0.989949
      2          6           0       -1.786118    1.237173   -0.004071
      3          1           0       -1.812586    2.299034    0.229830
      4          6           0       -1.387911    0.633988   -1.155336
      5          1           0       -1.018184    1.104323   -2.065340
      6          6           0       -2.010560   -1.099989    0.232580
      7          1           0       -2.232070   -2.069855    0.672174
      8          6           0       -1.527907   -0.823664   -1.007767
      9          1           0       -1.270901   -1.526606   -1.798892
     10          6           0        1.474079    0.829383    1.072678
     11          6           0        1.979823    1.078327   -0.327302
     12          1           0        2.137976    2.082991   -0.712786
     13          6           0        2.180173   -0.110334   -0.955598
     14          1           0        2.539126   -0.280408   -1.969623
     15          6           0        1.417641   -0.676956    1.146345
     16          1           0        1.087146   -1.198214    2.041897
     17          6           0        1.829531   -1.205089   -0.036530
     18          1           0        1.906222   -2.256281   -0.310705
     19         26           0        0.012914   -0.014192    0.015594
     20          1           0       -2.588650    0.324369    1.985677
     21          1           0        1.231795    1.582962    1.792621
 ---------------------------------------------------------------------
 Rotational constants (GHZ):           2.2478382           0.9476908           0.9266675
 Standard basis: Aug-CC-pVDZ (5D, 7F)
 There are   409 symmetry adapted cartesian basis functions of A   symmetry.
 There are   379 symmetry adapted basis functions of A   symmetry.
   379 basis functions,   854 primitive gaussians,   409 cartesian basis functions
    48 alpha electrons       48 beta electrons
       nuclear repulsion energy       885.9941799248 Hartrees.
 NAtoms=   21 NActive=   21 NUniq=   21 SFac= 1.00D+00 NAtFMM=   60 NAOKFM=F Big=F
 Integral buffers will be    131072 words long.
 Raffenetti 2 integral format.
 Two-electron integral symmetry is turned on.
 One-electron integrals computed using PRISM.
 NBasis=   379 RedAO= T EigKep=  7.16D-06  NBF=   379
 NBsUse=   379 1.00D-06 EigRej= -1.00D+00 NBFU=   379
 ExpMin= 1.40D-02 ExpMax= 4.32D+06 ExpMxC= 4.91D+03 IAcc=3 IRadAn=         5 AccDes= 0.00D+00
 Harris functional with IExCor=  402 and IRadAn=       5 diagonalized for initial guess.
 HarFok:  IExCor=  402 AccDes= 0.00D+00 IRadAn=         5 IDoV= 1 UseB2=F ITyADJ=14
 ICtDFT=  3500011 ScaDFX=  1.000000  1.000000  1.000000  1.000000
 FoFCou: FMM=F IPFlag=           0 FMFlag=      100000 FMFlg1=           0
         NFxFlg=           0 DoJE=T BraDBF=F KetDBF=T FulRan=T
         wScrn=  0.000000 ICntrl=       500 IOpCl=  0 I1Cent=   200000004 NGrid=           0
         NMat0=    1 NMatS0=      1 NMatT0=    0 NMatD0=    1 NMtDS0=    0 NMtDT0=    0
 Petite list used in FoFCou.
 Requested convergence on RMS density matrix=1.00D-08 within 128 cycles.
 Requested convergence on MAX density matrix=1.00D-06.
 Requested convergence on             energy=1.00D-06.
 No special actions if energy rises.
 SCF Done:  E(RB3LYP) =  -1650.83451139     A.U. after   20 cycles
            NFock= 20  Conv=0.59D-08     -V/T= 2.0028

 **********************************************************************

            Population analysis using the SCF Density.

 **********************************************************************

 Orbital symmetries:
       Occupied  (A) (A) (A) (A) (A) (A) (A) (A) (A) (A) (A) (A)
                 (A) (A) (A) (A) (A) (A) (A) (A) (A) (A) (A) (A)
                 (A) (A) (A) (A) (A) (A) (A) (A) (A) (A) (A) (A)
                 (A) (A) (A) (A) (A) (A) (A) (A) (A) (A) (A) (A)
       Virtual   (A) (A) (A) (A) (A) (A) (A) (A) (A) (A) (A) (A)
                 (A) (A) (A) (A) (A) (A) (A) (A) (A) (A) (A) (A)
                 (A) (A) (A) (A) (A) (A) (A) (A) (A) (A) (A) (A)
                 (A) (A) (A) (A) (A) (A) (A) (A) (A) (A) (A) (A)
                 (A) (A) (A) (A) (A) (A) (A) (A) (A) (A) (A) (A)
                 (A) (A) (A) (A) (A) (A) (A) (A) (A) (A) (A) (A)
                 (A) (A) (A) (A) (A) (A) (A) (A) (A) (A) (A) (A)
                 (A) (A) (A) (A) (A) (A) (A) (A) (A) (A) (A) (A)
                 (A) (A) (A) (A) (A) (A) (A) (A) (A) (A) (A) (A)
                 (A) (A) (A) (A) (A) (A) (A) (A) (A) (A) (A) (A)
                 (A) (A) (A) (A) (A) (A) (A) (A) (A) (A) (A) (A)
                 (A) (A) (A) (A) (A) (A) (A) (A) (A) (A) (A) (A)
                 (A) (A) (A) (A) (A) (A) (A) (A) (A) (A) (A) (A)
                 (A) (A) (A) (A) (A) (A) (A) (A) (A) (A) (A) (A)
                 (A) (A) (A) (A) (A) (A) (A) (A) (A) (A) (A) (A)
                 (A) (A) (A) (A) (A) (A) (A) (A) (A) (A) (A) (A)
                 (A) (A) (A) (A) (A) (A) (A) (A) (A) (A) (A) (A)
                 (A) (A) (A) (A) (A) (A) (A) (A) (A) (A) (A) (A)
                 (A) (A) (A) (A) (A) (A) (A) (A) (A) (A) (A) (A)
                 (A) (A) (A) (A) (A) (A) (A) (A) (A) (A) (A) (A)
                 (A) (A) (A) (A) (A) (A) (A) (A) (A) (A) (A) (A)
                 (A) (A) (A) (A) (A) (A) (A) (A) (A) (A) (A) (A)
                 (A) (A) (A) (A) (A) (A) (A) (A) (A) (A) (A) (A)
                 (A) (A) (A) (A) (A) (A) (A) (A) (A) (A) (A) (A)
                 (A) (A) (A) (A) (A) (A) (A) (A) (A) (A) (A) (A)
                 (A) (A) (A) (A) (A) (A) (A) (A) (A) (A) (A) (A)
                 (A) (A) (A) (A) (A) (A) (A) (A) (A) (A) (A) (A)
                 (A) (A) (A) (A) (A) (A) (A)
 The electronic state is 1-A.
 Alpha  occ. eigenvalues -- -256.04273 -29.98376 -25.85946 -25.83833 -25.83738
 Alpha  occ. eigenvalues --  -10.21073 -10.20263 -10.20231 -10.20052 -10.19734
 Alpha  occ. eigenvalues --  -10.19429 -10.18778 -10.18303 -10.18175 -10.17993
 Alpha  occ. eigenvalues --   -3.39578  -2.19947  -2.15373  -2.15090  -0.88228
 Alpha  occ. eigenvalues --   -0.87045  -0.72529  -0.72346  -0.69721  -0.69491
 Alpha  occ. eigenvalues --   -0.55308  -0.55025  -0.53968  -0.53603  -0.53108
 Alpha  occ. eigenvalues --   -0.52279  -0.41894  -0.41319  -0.40954  -0.40464
 Alpha  occ. eigenvalues --   -0.40192  -0.38170  -0.37784  -0.36473  -0.36332
 Alpha  occ. eigenvalues --   -0.36106  -0.28086  -0.26294  -0.25238  -0.23202
 Alpha  occ. eigenvalues --   -0.22843  -0.20082  -0.19129
 Alpha virt. eigenvalues --   -0.04389  -0.03462  -0.01136   0.00039   0.00080
 Alpha virt. eigenvalues --    0.00440   0.02111   0.02153   0.02837   0.02896
 Alpha virt. eigenvalues --    0.03104   0.03334   0.03623   0.04554   0.04654
 Alpha virt. eigenvalues --    0.04802   0.04890   0.04993   0.05178   0.06099
 Alpha virt. eigenvalues --    0.06464   0.07335   0.07524   0.08137   0.08254
 Alpha virt. eigenvalues --    0.08900   0.08944   0.09294   0.09754   0.10762
 Alpha virt. eigenvalues --    0.10883   0.11658   0.11716   0.12277   0.12346
 Alpha virt. eigenvalues --    0.12464   0.12778   0.13207   0.13343   0.13622
 Alpha virt. eigenvalues --    0.13826   0.13907   0.14316   0.14485   0.14601
 Alpha virt. eigenvalues --    0.15905   0.16543   0.16882   0.17364   0.17521
 Alpha virt. eigenvalues --    0.17756   0.18134   0.18918   0.19148   0.20058
 Alpha virt. eigenvalues --    0.20595   0.20840   0.21158   0.21670   0.21886
 Alpha virt. eigenvalues --    0.21920   0.22311   0.22551   0.23033   0.23331
 Alpha virt. eigenvalues --    0.23626   0.24356   0.24413   0.25210   0.25681
 Alpha virt. eigenvalues --    0.26078   0.26420   0.26766   0.27585   0.28272
 Alpha virt. eigenvalues --    0.29193   0.29423   0.29530   0.29841   0.30264
 Alpha virt. eigenvalues --    0.30651   0.31794   0.32181   0.32983   0.33133
 Alpha virt. eigenvalues --    0.33652   0.34567   0.35075   0.35605   0.37420
 Alpha virt. eigenvalues --    0.38040   0.38431   0.38853   0.39649   0.41017
 Alpha virt. eigenvalues --    0.41098   0.41265   0.41736   0.41899   0.42720
 Alpha virt. eigenvalues --    0.44454   0.44932   0.45247   0.45697   0.46276
 Alpha virt. eigenvalues --    0.46522   0.47328   0.47641   0.48289   0.49429
 Alpha virt. eigenvalues --    0.49757   0.50644   0.51579   0.52034   0.52812
 Alpha virt. eigenvalues --    0.53457   0.53522   0.53998   0.54310   0.54482
 Alpha virt. eigenvalues --    0.55274   0.55592   0.56013   0.56284   0.56756
 Alpha virt. eigenvalues --    0.57129   0.57780   0.58029   0.58448   0.58634
 Alpha virt. eigenvalues --    0.59474   0.59912   0.60107   0.60781   0.61154
 Alpha virt. eigenvalues --    0.62530   0.63622   0.64302   0.64637   0.65715
 Alpha virt. eigenvalues --    0.65953   0.66268   0.66324   0.66675   0.67239
 Alpha virt. eigenvalues --    0.67960   0.70010   0.71137   0.71553   0.72586
 Alpha virt. eigenvalues --    0.73575   0.73783   0.73985   0.74747   0.75631
 Alpha virt. eigenvalues --    0.76222   0.76943   0.78851   0.79473   0.79834
 Alpha virt. eigenvalues --    0.80419   0.80913   0.81464   0.82151   0.82243
 Alpha virt. eigenvalues --    0.83538   0.84131   0.84670   0.85840   0.88317
 Alpha virt. eigenvalues --    0.88751   0.89249   0.90931   0.91964   0.92657
 Alpha virt. eigenvalues --    0.93957   0.94769   0.97464   0.97802   0.98426
 Alpha virt. eigenvalues --    1.02368   1.03454   1.03931   1.04599   1.04885
 Alpha virt. eigenvalues --    1.05893   1.06538   1.09444   1.10426   1.13793
 Alpha virt. eigenvalues --    1.14869   1.16036   1.16210   1.17614   1.18234
 Alpha virt. eigenvalues --    1.19088   1.20449   1.21185   1.22021   1.23077
 Alpha virt. eigenvalues --    1.23714   1.27474   1.31210   1.32498   1.34213
 Alpha virt. eigenvalues --    1.35654   1.36851   1.37707   1.37940   1.39291
 Alpha virt. eigenvalues --    1.40414   1.41433   1.43611   1.43662   1.44132
 Alpha virt. eigenvalues --    1.44539   1.46257   1.47121   1.47609   1.48856
 Alpha virt. eigenvalues --    1.49501   1.50597   1.53244   1.55884   1.55992
 Alpha virt. eigenvalues --    1.56583   1.56853   1.57976   1.59840   1.60516
 Alpha virt. eigenvalues --    1.60851   1.62103   1.63040   1.63959   1.64392
 Alpha virt. eigenvalues --    1.66541   1.67789   1.69468   1.69702   1.70611
 Alpha virt. eigenvalues --    1.71495   1.74651   1.75874   1.76842   1.78016
 Alpha virt. eigenvalues --    1.78799   1.79756   1.81392   1.82085   1.84020
 Alpha virt. eigenvalues --    1.84996   1.86295   1.86765   1.88008   1.88469
 Alpha virt. eigenvalues --    1.89678   1.91066   1.91384   1.91847   1.93475
 Alpha virt. eigenvalues --    1.95269   1.98142   1.99124   2.01576   2.02430
 Alpha virt. eigenvalues --    2.02986   2.04254   2.04623   2.04935   2.05914
 Alpha virt. eigenvalues --    2.07556   2.08335   2.10894   2.12534   2.13415
 Alpha virt. eigenvalues --    2.15066   2.16558   2.17055   2.18131   2.19894
 Alpha virt. eigenvalues --    2.22292   2.24975   2.26588   2.28762   2.29672
 Alpha virt. eigenvalues --    2.30618   2.32230   2.34276   2.37111   2.37903
 Alpha virt. eigenvalues --    2.40267   2.43600   2.46855   2.47582   2.49844
 Alpha virt. eigenvalues --    2.52795   2.54420   2.55518   2.56797   2.59145
 Alpha virt. eigenvalues --    2.60138   2.60675   2.65112   2.68630   2.72195
 Alpha virt. eigenvalues --    2.77762   2.79120   2.83119   2.83429   2.87464
 Alpha virt. eigenvalues --    3.08211   3.14088   3.18437   3.20503   3.25397
 Alpha virt. eigenvalues --    3.36317   3.41977   3.54973   3.72918   3.86983
 Alpha virt. eigenvalues --    3.95181   3.98770   4.07886   4.17396   4.21043
 Alpha virt. eigenvalues --    4.30585   4.34827   4.40371   4.44358   4.67492
 Alpha virt. eigenvalues --    4.78687
          Condensed to atoms (all electrons):
               1          2          3          4          5          6
     1  C    8.197054  -0.249528   0.053911  -0.091983   0.047487  -0.274231
     2  C   -0.249528   9.055794  -1.705842  -1.403276   0.159999  -0.659149
     3  H    0.053911  -1.705842   2.987193   0.174542   0.038234   0.024869
     4  C   -0.091983  -1.403276   0.174542   9.396054  -1.744085   0.114193
     5  H    0.047487   0.159999   0.038234  -1.744085   2.987649  -0.026762
     6  C   -0.274231  -0.659149   0.024869   0.114193  -0.026762   9.017580
     7  H    0.053676   0.023264   0.031602  -0.064879   0.022148  -1.693405
     8  C   -0.249106   0.116878  -0.042106  -1.106504   0.194013  -1.357236
     9  H    0.059393  -0.047796   0.023807   0.158738  -0.002487   0.105745
    10  C   -0.006570  -0.301189   0.062592  -0.348714   0.037060  -0.072544
    11  C   -0.061390   0.223985  -0.003878  -0.271567  -0.023085   0.026364
    12  H    0.001010  -0.012288   0.005534   0.048804   0.026939   0.010830
    13  C   -0.108647  -0.127079   0.009387  -0.136508  -0.040460  -0.091360
    14  H    0.019335   0.003195   0.000791   0.053301   0.026963  -0.002293
    15  C   -0.016010  -0.104263  -0.001047   0.360514  -0.024467  -0.426755
    16  H   -0.031264   0.039147   0.003470  -0.004156  -0.020222  -0.013326
    17  C   -0.141694   0.113883   0.012134  -0.054433   0.054646   0.288596
    18  H    0.009307   0.008701  -0.006440  -0.023057   0.003069  -0.016056
    19  Fe  -0.639242  -0.305843   0.239970  -0.239666   0.060904  -0.198725
    20  H   -1.527384   0.098593  -0.035309  -0.094053   0.019467   0.114374
    21  H   -0.028076  -0.009423   0.020143   0.011216   0.020961   0.042840
               7          8          9         10         11         12
     1  C    0.053676  -0.249106   0.059393  -0.006570  -0.061390   0.001010
     2  C    0.023264   0.116878  -0.047796  -0.301189   0.223985  -0.012288
     3  H    0.031602  -0.042106   0.023807   0.062592  -0.003878   0.005534
     4  C   -0.064879  -1.106504   0.158738  -0.348714  -0.271567   0.048804
     5  H    0.022148   0.194013  -0.002487   0.037060  -0.023085   0.026939
     6  C   -1.693405  -1.357236   0.105745  -0.072544   0.026364   0.010830
     7  H    2.918164   0.225644   0.022493  -0.008550   0.018498  -0.003128
     8  C    0.225644   9.130808  -1.668594   0.390978  -0.112538   0.009198
     9  H    0.022493  -1.668594   2.991956   0.003340   0.025477   0.004857
    10  C   -0.008550   0.390978   0.003340   8.871773  -0.398223   0.055566
    11  C    0.018498  -0.112538   0.025477  -0.398223   8.492886  -1.621340
    12  H   -0.003128   0.009198   0.004857   0.055566  -1.621340   2.935026
    13  C    0.003655   0.117736  -0.021179  -0.391256  -1.109490   0.186092
    14  H   -0.002195   0.012273   0.010954   0.017103   0.202196   0.035660
    15  C    0.079489  -0.286833   0.014148  -1.055134   0.168093  -0.135390
    16  H    0.023878   0.018542   0.024257   0.134387  -0.025704   0.017662
    17  C   -0.016945  -0.372897  -0.001375   0.158432  -0.563470   0.097865
    18  H    0.002258   0.072497   0.021895  -0.052237  -0.022409   0.028892
    19  Fe   0.274202  -0.174854   0.116674  -0.444684  -0.185584   0.227165
    20  H   -0.035291  -0.100412   0.021627   0.017685   0.007224  -0.002028
    21  H    0.001718  -0.018393  -0.018084  -1.618063   0.144741  -0.043199
              13         14         15         16         17         18
     1  C   -0.108647   0.019335  -0.016010  -0.031264  -0.141694   0.009307
     2  C   -0.127079   0.003195  -0.104263   0.039147   0.113883   0.008701
     3  H    0.009387   0.000791  -0.001047   0.003470   0.012134  -0.006440
     4  C   -0.136508   0.053301   0.360514  -0.004156  -0.054433  -0.023057
     5  H   -0.040460   0.026963  -0.024467  -0.020222   0.054646   0.003069
     6  C   -0.091360  -0.002293  -0.426755  -0.013326   0.288596  -0.016056
     7  H    0.003655  -0.002195   0.079489   0.023878  -0.016945   0.002258
     8  C    0.117736   0.012273  -0.286833   0.018542  -0.372897   0.072497
     9  H   -0.021179   0.010954   0.014148   0.024257  -0.001375   0.021895
    10  C   -0.391256   0.017103  -1.055134   0.134387   0.158432  -0.052237
    11  C   -1.109490   0.202196   0.168093  -0.025704  -0.563470  -0.022409
    12  H    0.186092   0.035660  -0.135390   0.017662   0.097865   0.028892
    13  C    8.913174  -1.711451   0.069984   0.056474  -0.607829   0.108675
    14  H   -1.711451   2.862516  -0.176251   0.024225   0.150908  -0.066543
    15  C    0.069984  -0.176251   9.388579  -1.739387  -1.498018   0.278657
    16  H    0.056474   0.024225  -1.739387   2.929723   0.159445   0.032263
    17  C   -0.607829   0.150908  -1.498018   0.159445   9.255489  -1.753519
    18  H    0.108675  -0.066543   0.278657   0.032263  -1.753519   3.006623
    19  Fe  -0.265612   0.361409  -0.419352   0.128627  -0.254497   0.236804
    20  H    0.014292  -0.000583   0.025375   0.012000   0.013385  -0.000777
    21  H    0.008405   0.024338   0.163430   0.041263  -0.040526   0.011987
              19         20         21
     1  C   -0.639242  -1.527384  -0.028076
     2  C   -0.305843   0.098593  -0.009423
     3  H    0.239970  -0.035309   0.020143
     4  C   -0.239666  -0.094053   0.011216
     5  H    0.060904   0.019467   0.020961
     6  C   -0.198725   0.114374   0.042840
     7  H    0.274202  -0.035291   0.001718
     8  C   -0.174854  -0.100412  -0.018393
     9  H    0.116674   0.021627  -0.018084
    10  C   -0.444684   0.017685  -1.618063
    11  C   -0.185584   0.007224   0.144741
    12  H    0.227165  -0.002028  -0.043199
    13  C   -0.265612   0.014292   0.008405
    14  H    0.361409  -0.000583   0.024338
    15  C   -0.419352   0.025375   0.163430
    16  H    0.128627   0.012000   0.041263
    17  C   -0.254497   0.013385  -0.040526
    18  H    0.236804  -0.000777   0.011987
    19  Fe  29.138241   0.497987   0.218356
    20  H    0.497987   2.875811   0.009878
    21  H    0.218356   0.009878   3.021782
 Mulliken charges:
               1
     1  C    0.983954
     2  C    1.082237
     3  H   -0.893556
     4  C    1.265517
     5  H   -0.817972
     6  C    1.086452
     7  H   -0.876295
     8  C    1.200905
     9  H   -0.845848
    10  C    0.948246
    11  C    1.089213
    12  H   -0.873725
    13  C    1.122998
    14  H   -0.845852
    15  C    1.334638
    16  H   -0.811304
    17  C    1.000420
    18  H   -0.880590
    19  Fe  -2.372280
    20  H   -0.931863
    21  H   -0.965294
 Sum of Mulliken charges =  -0.00000
 Mulliken charges with hydrogens summed into heavy atoms:
               1
     1  C    0.052091
     2  C    0.188681
     4  C    0.447545
     6  C    0.210157
     8  C    0.355057
    10  C   -0.017048
    11  C    0.215488
    13  C    0.277146
    15  C    0.523334
    17  C    0.119830
    19  Fe  -2.372280
 Electronic spatial extent (au):  <R**2>=           1477.6111
 Charge=             -0.0000 electrons
 Dipole moment (field-independent basis, Debye):
    X=              0.0309    Y=             -0.0499    Z=             -0.2414  Tot=              0.2485
 Quadrupole moment (field-independent basis, Debye-Ang):
   XX=            -79.2127   YY=            -68.4240   ZZ=            -70.9500
   XY=              0.3632   XZ=             -6.0512   YZ=              0.2049
 Traceless Quadrupole moment (field-independent basis, Debye-Ang):
   XX=             -6.3505   YY=              4.4382   ZZ=              1.9122
   XY=              0.3632   XZ=             -6.0512   YZ=              0.2049
 Octapole moment (field-independent basis, Debye-Ang**2):
  XXX=              1.3859  YYY=              0.2683  ZZZ=             -0.5403  XYY=              0.4843
  XXY=             -1.7473  XXZ=             -0.6233  XZZ=             -0.6391  YZZ=             -0.2947
  YYZ=              0.1818  XYZ=             -0.0829
 Hexadecapole moment (field-independent basis, Debye-Ang**3):
 XXXX=          -1377.4895 YYYY=           -403.0664 ZZZZ=           -387.3679 XXXY=              3.5109
 XXXZ=            -56.3142 YYYX=              2.5979 YYYZ=              1.3165 ZZZX=            -24.7656
 ZZZY=              1.9939 XXYY=           -271.6478 XXZZ=           -274.0805 YYZZ=           -132.9264
 XXYZ=              0.7639 YYXZ=             -8.3575 ZZXY=             -0.7245
 N-N= 8.859941799248D+02 E-N=-5.677004027681D+03  KE= 1.646297814595D+03
 Calling FoFJK, ICntrl=      2127 FMM=F ISym2X=0 I1Cent= 0 IOpClX= 0 NMat=1 NMatS=1 NMatT=0.
 ***** Axes restored to original set *****
 -------------------------------------------------------------------
 Center     Atomic                   Forces (Hartrees/Bohr)
 Number     Number              X              Y              Z
 -------------------------------------------------------------------
      1        6          -0.032828763   -0.067794870   -0.054829566
      2        6           0.035686404    0.041043284    0.060540029
      3        1          -0.000402666   -0.002630118   -0.002088765
      4        6          -0.060684003   -0.037733584   -0.018696598
      5        1          -0.002352229    0.005742229    0.000651289
      6        6           0.051059310    0.057100368    0.031868805
      7        1           0.000544664   -0.003824277   -0.001344618
      8        6          -0.026270799   -0.017874493   -0.060071035
      9        1          -0.001907155    0.003924117    0.003056816
     10        6          -0.029834602   -0.055522286   -0.003835074
     11        6           0.036812892    0.060888575    0.023787185
     12        1          -0.004447653   -0.001089831   -0.000889387
     13        6          -0.028708009   -0.024118700    0.036022030
     14        1          -0.001380971    0.004224846   -0.000853165
     15        6           0.078390857    0.052007460    0.015196820
     16        1           0.001850863   -0.006204286    0.000538202
     17        6          -0.031077084   -0.028659696   -0.035882728
     18        1           0.000506733    0.003188405    0.000798541
     19       26          -0.001830582    0.007355650   -0.004074835
     20        1           0.007670947    0.004353254    0.006498352
     21        1           0.009201846    0.005623954    0.003607701
 -------------------------------------------------------------------
 Cartesian Forces:  Max     0.078390857 RMS     0.030145141

 GradGradGradGradGradGradGradGradGradGradGradGradGradGradGradGradGradGrad
 Berny optimization.
 FormGI is forming the generalized inverse of G from B-inverse, IUseBI=4.
 Internal  Forces:  Max     0.041659560 RMS     0.010166844
 Search for a local minimum.
 Step number   1 out of a maximum of  126
 All quantities printed in internal units (Hartrees-Bohrs-Radians)
 Mixed Optimization -- RFO/linear search
 Second derivative matrix not updated -- first step.
 ITU=  0
     Eigenvalues ---    0.00644   0.01887   0.01999   0.02156   0.02377
     Eigenvalues ---    0.02448   0.02614   0.02770   0.02864   0.03232
     Eigenvalues ---    0.03287   0.03454   0.03540   0.03757   0.04147
     Eigenvalues ---    0.04440   0.04565   0.04755   0.05098   0.05760
     Eigenvalues ---    0.06477   0.06570   0.07194   0.07622   0.08557
     Eigenvalues ---    0.09091   0.09400   0.10221   0.10824   0.11868
     Eigenvalues ---    0.14027   0.16000   0.16000   0.16025   0.17210
     Eigenvalues ---    0.17880   0.19525   0.23739   0.24331   0.25479
     Eigenvalues ---    0.25895   0.27548   0.30458   0.34921   0.34921
     Eigenvalues ---    0.34923   0.34923   0.35087   0.35087   0.35087
     Eigenvalues ---    0.35087   0.37230   0.37230   0.37344   0.37952
     Eigenvalues ---    0.41109   0.44159
 RFO step:  Lambda=-6.99570625D-02 EMin= 6.44263634D-03
 Linear search not attempted -- first point.
 Maximum step size (   0.300) exceeded in Quadratic search.
    -- Step size scaled by   0.637
 Iteration  1 RMS(Cart)=  0.04339751 RMS(Int)=  0.00088275
 Iteration  2 RMS(Cart)=  0.00061390 RMS(Int)=  0.00049474
 Iteration  3 RMS(Cart)=  0.00000062 RMS(Int)=  0.00049474
 Variable       Old X    -DE/DX   Delta X   Delta X   Delta X     New X
                                 (Linear)    (Quad)   (Total)
    R1        2.85198  -0.03902   0.00000  -0.07475  -0.07373   2.77825
    R2        2.85196  -0.04166   0.00000  -0.07776  -0.07702   2.77494
    R3        2.02201   0.01026   0.00000   0.01477   0.01477   2.03678
    R4        2.05534  -0.00082   0.00000  -0.00124  -0.00124   2.05410
    R5        2.56879   0.03688   0.00000   0.04793   0.04889   2.61768
    R6        4.14140  -0.01176   0.00000  -0.05661  -0.05810   4.08330
    R7        2.05800  -0.00187   0.00000  -0.00284  -0.00284   2.05516
    R8        2.78125  -0.01445   0.00000  -0.02664  -0.02717   2.75408
    R9        3.66116   0.02927   0.00000   0.08755   0.08786   3.74902
   R10        2.05533  -0.00051   0.00000  -0.00077  -0.00077   2.05457
   R11        2.56876   0.03726   0.00000   0.04778   0.04869   2.61745
   R12        4.35888  -0.01984   0.00000  -0.08437  -0.08586   4.27302
   R13        2.05803  -0.00229   0.00000  -0.00348  -0.00348   2.05455
   R14        3.81549   0.01941   0.00000   0.05634   0.05709   3.87258
   R15        2.85198  -0.02459   0.00000  -0.05348  -0.05274   2.79924
   R16        2.85196  -0.02379   0.00000  -0.05441  -0.05490   2.79707
   R17        3.76243   0.01322   0.00000   0.04331   0.04276   3.80519
   R18        2.02201   0.00993   0.00000   0.01430   0.01430   2.03631
   R19        2.05534  -0.00050   0.00000  -0.00076  -0.00076   2.05458
   R20        2.56879   0.03132   0.00000   0.03792   0.03755   2.60633
   R21        4.30090  -0.02389   0.00000  -0.08804  -0.08776   4.21315
   R22        2.05800  -0.00163   0.00000  -0.00248  -0.00248   2.05552
   R23        2.78125  -0.02228   0.00000  -0.03350  -0.03329   2.74796
   R24        2.05533  -0.00060   0.00000  -0.00091  -0.00091   2.05442
   R25        2.56876   0.04019   0.00000   0.04989   0.05090   2.61966
   R26        3.63059   0.02663   0.00000   0.08951   0.09014   3.72073
   R27        2.05803  -0.00210   0.00000  -0.00320  -0.00320   2.05483
   R28        4.10599  -0.00459   0.00000  -0.04497  -0.04604   4.05996
    A1        1.79512   0.02354   0.00000   0.03909   0.03868   1.83380
    A2        2.24403  -0.01165   0.00000  -0.01921  -0.01901   2.22502
    A3        2.24403  -0.01189   0.00000  -0.01988  -0.01967   2.22436
    A4        2.12924   0.00755   0.00000   0.01561   0.01514   2.14438
    A5        1.91124  -0.00584   0.00000  -0.00947  -0.00896   1.90228
    A6        1.40401  -0.01372   0.00000  -0.04362  -0.04332   1.36069
    A7        2.24270  -0.00172   0.00000  -0.00615  -0.00618   2.23652
    A8        2.18403  -0.00176   0.00000  -0.00829  -0.00829   2.17574
    A9        2.23382   0.00814   0.00000   0.00930   0.01001   2.24383
   A10        1.90360  -0.00613   0.00000  -0.01014  -0.01059   1.89301
   A11        2.14577  -0.00201   0.00000   0.00083   0.00049   2.14626
   A12        1.98673   0.01682   0.00000   0.04740   0.04668   2.03340
   A13        2.12929   0.00741   0.00000   0.01513   0.01463   2.14392
   A14        1.91132  -0.00495   0.00000  -0.00725  -0.00697   1.90435
   A15        1.33658  -0.01136   0.00000  -0.03493  -0.03462   1.30196
   A16        2.24258  -0.00247   0.00000  -0.00789  -0.00766   2.23491
   A17        2.26067  -0.00471   0.00000  -0.01785  -0.01788   2.24279
   A18        1.90349  -0.00663   0.00000  -0.01224  -0.01218   1.89131
   A19        2.14597  -0.00110   0.00000   0.00313   0.00241   2.14838
   A20        2.23372   0.00773   0.00000   0.00911   0.00975   2.24347
   A21        2.03406   0.01443   0.00000   0.03993   0.03922   2.07328
   A22        1.79512   0.01595   0.00000   0.02927   0.02959   1.82471
   A23        2.19427  -0.00494   0.00000  -0.00549  -0.00520   2.18907
   A24        2.29379  -0.01101   0.00000  -0.02377  -0.02442   2.26937
   A25        2.08227   0.00623   0.00000   0.02285   0.02324   2.10550
   A26        2.12924   0.00156   0.00000   0.00580   0.00573   2.13497
   A27        1.91124  -0.00549   0.00000  -0.00749  -0.00718   1.90406
   A28        2.24270   0.00393   0.00000   0.00169   0.00145   2.24415
   A29        2.24269  -0.00334   0.00000  -0.01195  -0.01216   2.23054
   A30        1.34617  -0.01004   0.00000  -0.02798  -0.02853   1.31763
   A31        2.23382  -0.00256   0.00000  -0.00429  -0.00402   2.22980
   A32        1.90360   0.00052   0.00000  -0.00418  -0.00470   1.89890
   A33        2.14577   0.00204   0.00000   0.00846   0.00872   2.15449
   A34        2.12929   0.00658   0.00000   0.01274   0.01271   2.14200
   A35        1.91132  -0.00612   0.00000  -0.01046  -0.01098   1.90034
   A36        2.24258  -0.00046   0.00000  -0.00229  -0.00191   2.24067
   A37        2.01282   0.01362   0.00000   0.04177   0.04134   2.05416
   A38        1.90349  -0.00486   0.00000  -0.00715  -0.00692   1.89657
   A39        2.14597   0.00148   0.00000   0.00715   0.00674   2.15271
   A40        1.37605  -0.00768   0.00000  -0.03048  -0.03087   1.34518
   A41        2.23372   0.00337   0.00000  -0.00001   0.00013   2.23386
   A42        2.20676  -0.00112   0.00000  -0.00899  -0.00861   2.19814
   A43        1.10347  -0.00121   0.00000   0.00694   0.00693   1.11040
   A44        1.15700   0.00162   0.00000   0.00195   0.00170   1.15870
   A45        1.94473   0.00236   0.00000   0.00724   0.00722   1.95196
   A46        2.01971  -0.00188   0.00000  -0.01072  -0.01064   2.00907
   A47        2.50222  -0.01246   0.00000  -0.02160  -0.02078   2.48144
   A48        1.13741   0.00241   0.00000   0.00447   0.00410   1.14151
   A49        2.35996   0.00931   0.00000   0.02537   0.02494   2.38491
   A50        1.95326   0.00118   0.00000   0.00262   0.00356   1.95682
   A51        2.45497  -0.00884   0.00000  -0.01192  -0.01117   2.44379
   A52        2.48701  -0.00518   0.00000  -0.01073  -0.01053   2.47648
   A53        2.00827  -0.00153   0.00000  -0.00205  -0.00163   2.00664
   A54        2.06882  -0.00280   0.00000  -0.01383  -0.01417   2.05466
   A55        2.45846  -0.00281   0.00000  -0.00683  -0.00592   2.45254
   A56        2.37169   0.01103   0.00000   0.02732   0.02719   2.39888
   A57        1.98902  -0.00389   0.00000  -0.00462  -0.00435   1.98467
   A58        1.19327  -0.00044   0.00000  -0.00512  -0.00504   1.18823
   A59        1.18358  -0.00177   0.00000  -0.00455  -0.00561   1.17797
   A60        1.08935   0.00631   0.00000   0.01845   0.01864   1.10799
   A61        3.17229  -0.00401   0.00000  -0.00688  -0.00723   3.16506
   A62        3.13684  -0.00059   0.00000  -0.00192  -0.00205   3.13479
   A63        3.12318  -0.00309   0.00000  -0.00377  -0.00370   3.11948
   A64        3.18229  -0.00433   0.00000  -0.00974  -0.00939   3.17290
   A65        3.10774   0.00240   0.00000   0.00656   0.00661   3.11435
   A66        3.16323  -0.00227   0.00000  -0.00539  -0.00531   3.15791
   A67        3.20388  -0.01046   0.00000  -0.01778  -0.01808   3.18580
   A68        3.16033  -0.00602   0.00000  -0.00851  -0.00831   3.15202
    D1       -3.14139  -0.00066   0.00000   0.00095   0.00057  -3.14082
    D2        0.00048   0.00023   0.00000   0.00350   0.00280   0.00328
    D3       -0.94821  -0.00985   0.00000  -0.03354  -0.03401  -0.98222
    D4        0.00020   0.00221   0.00000   0.00365   0.00379   0.00399
    D5       -3.14112   0.00309   0.00000   0.00620   0.00602  -3.13510
    D6        2.19338  -0.00698   0.00000  -0.03084  -0.03079   2.16259
    D7        3.14133   0.00042   0.00000  -0.00104  -0.00071   3.14062
    D8       -0.00050   0.00103   0.00000   0.00011   0.00079   0.00029
    D9        0.89866   0.01154   0.00000   0.03864   0.03918   0.93785
   D10       -0.00026  -0.00245   0.00000  -0.00373  -0.00393  -0.00419
   D11        3.14110  -0.00183   0.00000  -0.00259  -0.00242   3.13867
   D12       -2.24293   0.00867   0.00000   0.03595   0.03597  -2.20696
   D13        3.14138   0.00084   0.00000   0.00864   0.00869  -3.13311
   D14       -0.00030  -0.00130   0.00000  -0.00564  -0.00519  -0.00549
   D15        0.00009   0.00180   0.00000   0.01140   0.01107   0.01115
   D16        3.14159  -0.00035   0.00000  -0.00287  -0.00282   3.13878
   D17        0.61928  -0.00552   0.00000   0.00267   0.00213   0.62141
   D18        1.31135   0.00745   0.00000   0.02623   0.02499   1.33633
   D19       -1.80952   0.00105   0.00000   0.01688   0.01591  -1.79361
   D20       -2.58460   0.00494   0.00000   0.02045   0.02021  -2.56440
   D21       -1.06844  -0.00570   0.00000  -0.01038  -0.01096  -1.07940
   D22        2.75881  -0.00652   0.00000  -0.01166  -0.01141   2.74740
   D23       -2.83231   0.00645   0.00000   0.01191   0.01145  -2.82086
   D24        0.33001   0.00005   0.00000   0.00255   0.00237   0.33239
   D25       -0.44507   0.00394   0.00000   0.00612   0.00667  -0.43840
   D26        1.07109  -0.00669   0.00000  -0.02471  -0.02450   1.04659
   D27       -0.00003   0.00202   0.00000   0.00579   0.00573   0.00570
   D28       -3.14151   0.00148   0.00000   0.01184   0.01133  -3.13018
   D29        3.14148   0.00000   0.00000  -0.00762  -0.00720   3.13428
   D30        0.00000  -0.00054   0.00000  -0.00157  -0.00161  -0.00161
   D31       -2.69681  -0.00582   0.00000  -0.00926  -0.00918  -2.70599
   D32        1.12943  -0.00517   0.00000  -0.01044  -0.01084   1.11859
   D33        0.41270   0.00470   0.00000   0.00727   0.00737   0.42007
   D34       -0.85699  -0.00624   0.00000  -0.02436  -0.02515  -0.88214
   D35        0.00034  -0.00185   0.00000  -0.00342  -0.00392  -0.00357
   D36       -3.14137  -0.00127   0.00000  -0.00986  -0.00991   3.13190
   D37       -3.14150  -0.00118   0.00000  -0.00217  -0.00231   3.13937
   D38       -0.00003  -0.00061   0.00000  -0.00861  -0.00831  -0.00834
   D39       -0.62916   0.00467   0.00000  -0.00421  -0.00351  -0.63266
   D40       -1.36460  -0.00680   0.00000  -0.02160  -0.02006  -1.38466
   D41        0.95617   0.00966   0.00000   0.02240   0.02249   0.97866
   D42        1.79927  -0.00918   0.00000  -0.02718  -0.02559   1.77368
   D43        2.54629   0.00228   0.00000  -0.01077  -0.01012   2.53617
   D44       -2.73446   0.00522   0.00000   0.00824   0.00792  -2.72654
   D45        2.81328  -0.00625   0.00000  -0.00914  -0.00864   2.80464
   D46       -1.14913   0.01021   0.00000   0.03485   0.03391  -1.11522
   D47       -0.30604  -0.00863   0.00000  -0.01473  -0.01416  -0.32020
   D48        0.44099   0.00283   0.00000   0.00168   0.00131   0.44229
   D49        2.68569   0.00631   0.00000   0.01036   0.01044   2.69614
   D50        0.90197   0.00691   0.00000   0.02394   0.02426   0.92623
   D51       -1.08906  -0.00423   0.00000  -0.00346  -0.00227  -1.09133
   D52       -0.40923   0.00174   0.00000   0.00085   0.00058  -0.40865
   D53       -3.14139   0.00220   0.00000   0.00791   0.00797  -3.13342
   D54        0.00048   0.00159   0.00000   0.00872   0.00862   0.00910
   D55       -0.00000  -0.00021   0.00000   0.00008   0.00026   0.00026
   D56       -3.14132  -0.00082   0.00000   0.00088   0.00091  -3.14041
   D57        3.14133  -0.00049   0.00000   0.00165   0.00179  -3.14007
   D58       -0.00050  -0.00415   0.00000  -0.01728  -0.01689  -0.01738
   D59       -0.00004   0.00212   0.00000   0.01013   0.00999   0.00995
   D60        3.14132  -0.00154   0.00000  -0.00880  -0.00868   3.13263
   D61        0.35632  -0.00366   0.00000   0.00112   0.00090   0.35722
   D62        0.98407   0.00919   0.00000   0.01871   0.01780   1.00187
   D63       -0.92695  -0.00447   0.00000  -0.01902  -0.01881  -0.94576
   D64       -2.83124   0.00083   0.00000   0.01039   0.01053  -2.82072
   D65        3.14138   0.00181   0.00000   0.00211   0.00232  -3.13948
   D66       -0.00030   0.00131   0.00000   0.00214   0.00234   0.00205
   D67        0.00009   0.00115   0.00000   0.00298   0.00303   0.00311
   D68        3.14159   0.00065   0.00000   0.00301   0.00305  -3.13854
   D69        2.25775  -0.01032   0.00000  -0.03580  -0.03600   2.22176
   D70       -0.88393  -0.01082   0.00000  -0.03577  -0.03597  -0.91990
   D71       -0.26001  -0.00718   0.00000  -0.01744  -0.01714  -0.27714
   D72        0.46061   0.00475   0.00000   0.00172   0.00119   0.46181
   D73        1.19539  -0.00773   0.00000  -0.02928  -0.02883   1.16656
   D74       -2.70261   0.00702   0.00000   0.00711   0.00651  -2.69611
   D75        2.85027  -0.00543   0.00000  -0.01205  -0.01158   2.83869
   D76       -2.51768  -0.00276   0.00000   0.00811   0.00795  -2.50974
   D77       -1.79706   0.00917   0.00000   0.02727   0.02628  -1.77079
   D78       -1.06229  -0.00331   0.00000  -0.00373  -0.00374  -1.06603
   D79        1.32289   0.01144   0.00000   0.03266   0.03159   1.35448
   D80        0.59259  -0.00101   0.00000   0.01350   0.01351   0.60610
   D81       -0.00003  -0.00409   0.00000  -0.01368  -0.01335  -0.01338
   D82       -3.14151  -0.00111   0.00000  -0.00301  -0.00303   3.13865
   D83        0.93535   0.00497   0.00000   0.02636   0.02611   0.96146
   D84        3.14148  -0.00456   0.00000  -0.01366  -0.01333   3.12815
   D85        0.00000  -0.00158   0.00000  -0.00299  -0.00301  -0.00301
   D86       -2.20633   0.00450   0.00000   0.02638   0.02613  -2.18020
   D87        0.00034   0.00509   0.00000   0.01927   0.01878   0.01912
   D88       -3.14137   0.00192   0.00000   0.00791   0.00784  -3.13353
   D89       -3.14150   0.00112   0.00000  -0.00123  -0.00126   3.14043
   D90       -0.00003  -0.00204   0.00000  -0.01259  -0.01220  -0.01223
   D91        0.95468   0.00014   0.00000   0.01226   0.01251   0.96719
   D92       -0.41016   0.00659   0.00000   0.00740   0.00726  -0.40290
   D93       -1.04859  -0.00351   0.00000  -0.00800  -0.00756  -1.05615
   D94        2.76479  -0.00415   0.00000  -0.00960  -0.00974   2.75505
   D95        1.05946   0.00318   0.00000   0.00468   0.00471   1.06417
   D96        2.53946  -0.00001   0.00000  -0.00943  -0.00975   2.52971
   D97        1.84425  -0.01215   0.00000  -0.03237  -0.03184   1.81240
   D98       -1.31609  -0.00613   0.00000  -0.02387  -0.02353  -1.33962
   D99       -0.53818  -0.01071   0.00000  -0.02774  -0.02832  -0.56650
   D100      -1.08602   0.00735   0.00000   0.02072   0.02065  -1.06537
   D101       0.39398   0.00416   0.00000   0.00661   0.00619   0.40017
   D102      -0.30124  -0.00798   0.00000  -0.01633  -0.01590  -0.31714
   D103       2.82161  -0.00196   0.00000  -0.00782  -0.00759   2.81403
   D104      -2.68366  -0.00654   0.00000  -0.01170  -0.01238  -2.69604
         Item               Value     Threshold  Converged?
 Maximum Force            0.041660     0.000450     NO 
 RMS     Force            0.010167     0.000300     NO 
 Maximum Displacement     0.202617     0.001800     NO 
 RMS     Displacement     0.043428     0.001200     NO 
 Predicted change in Energy=-3.435652D-02
 GradGradGradGradGradGradGradGradGradGradGradGradGradGradGradGradGradGrad

                          Input orientation:                          
 ---------------------------------------------------------------------
 Center     Atomic      Atomic             Coordinates (Angstroms)
 Number     Number       Type             X           Y           Z
 ---------------------------------------------------------------------
      1          6           0       -2.409726    0.669665    0.809160
      2          6           0       -2.400746    0.671506   -0.661000
      3          1           0       -1.832481    1.389707   -1.246485
      4          6           0       -3.210621   -0.355152   -1.118054
      5          1           0       -3.424717   -0.644034   -2.144436
      6          6           0       -3.288121   -0.445723    1.184176
      7          1           0       -3.498738   -0.708448    2.217948
      8          6           0       -3.761595   -1.056376    0.034649
      9          1           0       -4.424293   -1.913798   -0.053167
     10          6           0        0.242245   -1.548537   -0.444685
     11          6           0       -0.293029   -2.207992   -1.658289
     12          1           0       -0.060682   -1.857396   -2.660877
     13          6           0       -1.084654   -3.272630   -1.281329
     14          1           0       -1.623474   -3.963197   -1.926277
     15          6           0       -0.303947   -2.340333    0.680286
     16          1           0       -0.092942   -2.106312    1.720771
     17          6           0       -1.102981   -3.351983    0.170548
     18          1           0       -1.659527   -4.106838    0.720846
     19         26           0       -1.746354   -1.337559   -0.208853
     20          1           0       -1.887476    1.343026    1.469104
     21          1           0        0.890613   -0.687900   -0.435955
 ---------------------------------------------------------------------
                    Distance matrix (angstroms):
                    1          2          3          4          5
     1  C    0.000000
     2  C    1.470188   0.000000
     3  H    2.253298   1.086983   0.000000
     4  C    2.325045   1.385216   2.227173   0.000000
     5  H    3.388176   2.231534   2.734526   1.087543   0.000000
     6  C    1.468436   2.332447   3.375767   2.305313   3.337310
     7  H    2.251627   3.376122   4.379608   3.367007   4.363487
     8  C    2.325217   2.306819   3.368398   1.457398   2.243195
     9  H    3.387679   3.338862   4.365163   2.244184   2.642888
    10  C    3.677704   3.458438   3.685194   3.714819   4.141725
    11  C    4.341615   3.705208   3.934835   3.498172   3.534086
    12  H    4.893384   3.983812   3.960234   3.815646   3.613266
    13  C    4.654852   4.203941   4.722059   3.613595   3.623584
    14  H    5.437299   4.866781   5.399943   4.023710   3.782712
    15  C    3.675731   3.907274   4.467892   3.952685   4.538247
    16  H    3.728884   4.326092   4.904361   4.565677   5.308371
    17  C    4.276571   4.308612   5.002377   3.883765   4.252363
    18  H    4.835864   5.029063   5.840574   4.456746   4.828741
    19  Fe   2.346350   2.160789   2.919259   1.983896   2.654121
    20  H    1.077816   2.291665   2.716547   3.365696   4.401044
    21  H    3.779621   3.568147   3.519751   4.170863   4.641432
                    6          7          8          9         10
     6  C    0.000000
     7  H    1.087230   0.000000
     8  C    1.385094   2.226419   0.000000
     9  H    2.230952   2.732670   1.087223   0.000000
    10  C    4.041395   4.668010   4.062354   4.697157   0.000000
    11  C    4.489518   5.248849   4.027804   4.441881   1.481295
    12  H    5.214750   6.078095   4.648037   5.083742   2.258023
    13  C    4.350332   4.964652   3.716126   3.808937   2.330907
    14  H    4.981826   5.593264   4.106872   3.943750   3.392139
    15  C    3.570539   3.903093   3.744425   4.206797   1.480144
    16  H    3.640696   3.714923   4.171857   4.684498   2.261120
    17  C    3.774735   4.113365   3.515182   3.626229   2.332501
    18  H    4.033702   4.144039   3.767608   3.612817   3.394128
    19  Fe   2.261182   3.058756   2.049281   2.743656   2.013618
    20  H    2.289676   2.713942   3.365578   4.399961   4.069330
    21  H    4.488351   5.129329   4.690445   5.467868   1.077568
                   11         12         13         14         15
    11  C    0.000000
    12  H    1.087237   0.000000
    13  C    1.379211   2.225884   0.000000
    14  H    2.218703   2.723298   1.087735   0.000000
    15  C    2.342342   3.384638   2.307946   3.342007   0.000000
    16  H    3.386506   4.388831   3.369925   4.369383   1.087151
    17  C    2.304210   3.367068   1.454159   2.245255   1.386263
    18  H    3.336647   4.364899   2.243899   2.651262   2.227057
    19  Fe   2.229501   3.020620   2.309232   3.139844   1.968924
    20  H    4.993254   5.535037   5.432650   6.305102   4.086188
    21  H    2.281620   2.687557   3.361125   4.389677   2.324543
                   16         17         18         19         20
    16  H    0.000000
    17  C    2.230486   0.000000
    18  H    2.730594   1.087372   0.000000
    19  Fe   2.654845   2.148437   2.922462   0.000000
    20  H    3.896361   4.934045   5.505713   3.165595   0.000000
    21  H    2.762380   3.382248   4.419337   2.725294   3.933407
                   21
    21  H    0.000000
 Stoichiometry    C10H10Fe
 Framework group  C1[X(C10H10Fe)]
 Deg. of freedom    57
 Full point group                 C1      NOp   1
 Largest Abelian subgroup         C1      NOp   1
 Largest concise Abelian subgroup C1      NOp   1
                         Standard orientation:                         
 ---------------------------------------------------------------------
 Center     Atomic      Atomic             Coordinates (Angstroms)
 Number     Number       Type             X           Y           Z
 ---------------------------------------------------------------------
      1          6           0       -2.091203    0.219273    1.029894
      2          6           0       -1.761034    1.225026    0.009648
      3          1           0       -1.769845    2.293353    0.209974
      4          6           0       -1.460277    0.579839   -1.178671
      5          1           0       -1.167727    1.015297   -2.131321
      6          6           0       -1.956475   -1.074411    0.348324
      7          1           0       -2.136552   -2.024341    0.845590
      8          6           0       -1.577787   -0.857187   -0.966170
      9          1           0       -1.382639   -1.590344   -1.744920
     10          6           0        1.530196    0.859949    1.007305
     11          6           0        1.917138    1.065524   -0.407703
     12          1           0        2.041744    2.056041   -0.838324
     13          6           0        2.072496   -0.162531   -1.015953
     14          1           0        2.353458   -0.364231   -2.047236
     15          6           0        1.486869   -0.610471    1.171055
     16          1           0        1.228451   -1.089714    2.112035
     17          6           0        1.795715   -1.206231   -0.041961
     18          1           0        1.846329   -2.267638   -0.272679
     19         26           0        0.011012   -0.011439    0.013614
     20          1           0       -2.374125    0.393475    2.055221
     21          1           0        1.340773    1.642840    1.723094
 ---------------------------------------------------------------------
 Rotational constants (GHZ):           2.2271432           0.9651943           0.9532830
 Standard basis: Aug-CC-pVDZ (5D, 7F)
 There are   409 symmetry adapted cartesian basis functions of A   symmetry.
 There are   379 symmetry adapted basis functions of A   symmetry.
   379 basis functions,   854 primitive gaussians,   409 cartesian basis functions
    48 alpha electrons       48 beta electrons
       nuclear repulsion energy       889.8839972991 Hartrees.
 NAtoms=   21 NActive=   21 NUniq=   21 SFac= 1.00D+00 NAtFMM=   60 NAOKFM=F Big=F
 Integral buffers will be    131072 words long.
 Raffenetti 2 integral format.
 Two-electron integral symmetry is turned on.
 One-electron integrals computed using PRISM.
 NBasis=   379 RedAO= T EigKep=  6.94D-06  NBF=   379
 NBsUse=   379 1.00D-06 EigRej= -1.00D+00 NBFU=   379
 Initial guess from the checkpoint file:  "ferro_gauche.chk"
 B after Tr=     0.000000    0.000000    0.000000
         Rot=    0.999633    0.020244   -0.018011   -0.000230 Ang=   3.11 deg.
 ExpMin= 1.40D-02 ExpMax= 4.32D+06 ExpMxC= 4.91D+03 IAcc=3 IRadAn=         5 AccDes= 0.00D+00
 Harris functional with IExCor=  402 and IRadAn=       5 diagonalized for initial guess.
 HarFok:  IExCor=  402 AccDes= 0.00D+00 IRadAn=         5 IDoV= 1 UseB2=F ITyADJ=14
 ICtDFT=  3500011 ScaDFX=  1.000000  1.000000  1.000000  1.000000
 FoFCou: FMM=F IPFlag=           0 FMFlag=      100000 FMFlg1=           0
         NFxFlg=           0 DoJE=T BraDBF=F KetDBF=T FulRan=T
         wScrn=  0.000000 ICntrl=       500 IOpCl=  0 I1Cent=   200000004 NGrid=           0
         NMat0=    1 NMatS0=      1 NMatT0=    0 NMatD0=    1 NMtDS0=    0 NMtDT0=    0
 Petite list used in FoFCou.
 Requested convergence on RMS density matrix=1.00D-08 within 128 cycles.
 Requested convergence on MAX density matrix=1.00D-06.
 Requested convergence on             energy=1.00D-06.
 No special actions if energy rises.
 SCF Done:  E(RB3LYP) =  -1650.87208033     A.U. after   18 cycles
            NFock= 18  Conv=0.59D-08     -V/T= 2.0028
 Calling FoFJK, ICntrl=      2127 FMM=F ISym2X=0 I1Cent= 0 IOpClX= 0 NMat=1 NMatS=1 NMatT=0.
 ***** Axes restored to original set *****
 -------------------------------------------------------------------
 Center     Atomic                   Forces (Hartrees/Bohr)
 Number     Number              X              Y              Z
 -------------------------------------------------------------------
      1        6          -0.018299184   -0.042059700   -0.034011234
      2        6           0.023319358    0.022549119    0.034043514
      3        1          -0.000600274   -0.002114292   -0.002245384
      4        6          -0.038172973   -0.023971369   -0.010128858
      5        1          -0.000572720    0.005402391   -0.000102881
      6        6           0.033414885    0.029223280    0.017979145
      7        1           0.000258767   -0.003643574   -0.001280649
      8        6          -0.015015611   -0.008577555   -0.038605533
      9        1          -0.001527284    0.002348726    0.003835965
     10        6          -0.019260887   -0.037164458   -0.003161008
     11        6           0.026045005    0.043625555    0.018922502
     12        1          -0.004518203   -0.001432829   -0.001035513
     13        6          -0.020867217   -0.012637153    0.025322374
     14        1          -0.001668160    0.003859571   -0.001176392
     15        6           0.049337682    0.033946517    0.007212602
     16        1           0.000464690   -0.005256581    0.000401341
     17        6          -0.017720072   -0.014590740   -0.020708276
     18        1           0.000545324    0.002407876    0.001658002
     19       26          -0.005230663    0.005373695   -0.002974614
     20        1           0.004884071    0.000923757    0.002983694
     21        1           0.005183466    0.001787764    0.003071204
 -------------------------------------------------------------------
 Cartesian Forces:  Max     0.049337682 RMS     0.018905161

 GradGradGradGradGradGradGradGradGradGradGradGradGradGradGradGradGradGrad
 Berny optimization.
 Using GEDIIS/GDIIS optimizer.
 FormGI is forming the generalized inverse of G from B-inverse, IUseBI=4.
 Internal  Forces:  Max     0.023792039 RMS     0.006660395
 Search for a local minimum.
 Step number   2 out of a maximum of  126
 All quantities printed in internal units (Hartrees-Bohrs-Radians)
 Mixed Optimization -- RFO/linear search
 Update second derivatives using D2CorX and points    1    2
 DE= -3.76D-02 DEPred=-3.44D-02 R= 1.09D+00
 TightC=F SS=  1.41D+00  RLast= 3.41D-01 DXNew= 5.0454D-01 1.0228D+00
 Trust test= 1.09D+00 RLast= 3.41D-01 DXMaxT set to 5.05D-01
 ITU=  1  0
 Use linear search instead of GDIIS.
[...]
      7          1           0       -1.668320    2.151037   -0.817962
      8          6           0       -1.690970    0.762190    0.947452
      9          1           0       -1.668843    1.442381    1.793186
     10          6           0        1.690511   -0.760969   -0.948617
     11          6           0        1.690218   -1.137411    0.430649
     12          1           0        1.666725   -2.152592    0.814361
     13          6           0        1.690541    0.057869    1.214745
     14          1           0        1.667696    0.109844    2.298799
     15          6           0        1.690959    0.667033   -1.016823
     16          1           0        1.668117    1.262499   -1.924175
     17          6           0        1.691053    1.173130    0.320201
     18          1           0        1.668196    2.220077    0.606178
     19         26           0       -0.000091    0.000327    0.000014
     20          1           0       -1.667457   -0.113284   -2.298660
     21          1           0        1.667130   -1.440189   -1.795063
 ---------------------------------------------------------------------
 Rotational constants (GHZ):           2.1891579           1.0389523           1.0389368

 **********************************************************************

            Population analysis using the SCF Density.

 **********************************************************************

 Orbital symmetries:
       Occupied  (A) (A) (A) (A) (A) (A) (A) (A) (A) (A) (A) (A)
                 (A) (A) (A) (A) (A) (A) (A) (A) (A) (A) (A) (A)
                 (A) (A) (A) (A) (A) (A) (A) (A) (A) (A) (A) (A)
                 (A) (A) (A) (A) (A) (A) (A) (A) (A) (A) (A) (A)
       Virtual   (A) (A) (A) (A) (A) (A) (A) (A) (A) (A) (A) (A)
                 (A) (A) (A) (A) (A) (A) (A) (A) (A) (A) (A) (A)
                 (A) (A) (A) (A) (A) (A) (A) (A) (A) (A) (A) (A)
                 (A) (A) (A) (A) (A) (A) (A) (A) (A) (A) (A) (A)
                 (A) (A) (A) (A) (A) (A) (A) (A) (A) (A) (A) (A)
                 (A) (A) (A) (A) (A) (A) (A) (A) (A) (A) (A) (A)
                 (A) (A) (A) (A) (A) (A) (A) (A) (A) (A) (A) (A)
                 (A) (A) (A) (A) (A) (A) (A) (A) (A) (A) (A) (A)
                 (A) (A) (A) (A) (A) (A) (A) (A) (A) (A) (A) (A)
                 (A) (A) (A) (A) (A) (A) (A) (A) (A) (A) (A) (A)
                 (A) (A) (A) (A) (A) (A) (A) (A) (A) (A) (A) (A)
                 (A) (A) (A) (A) (A) (A) (A) (A) (A) (A) (A) (A)
                 (A) (A) (A) (A) (A) (A) (A) (A) (A) (A) (A) (A)
                 (A) (A) (A) (A) (A) (A) (A) (A) (A) (A) (A) (A)
                 (A) (A) (A) (A) (A) (A) (A) (A) (A) (A) (A) (A)
                 (A) (A) (A) (A) (A) (A) (A) (A) (A) (A) (A) (A)
                 (A) (A) (A) (A) (A) (A) (A) (A) (A) (A) (A) (A)
                 (A) (A) (A) (A) (A) (A) (A) (A) (A) (A) (A) (A)
                 (A) (A) (A) (A) (A) (A) (A) (A) (A) (A) (A) (A)
                 (A) (A) (A) (A) (A) (A) (A) (A) (A) (A) (A) (A)
                 (A) (A) (A) (A) (A) (A) (A) (A) (A) (A) (A) (A)
                 (A) (A) (A) (A) (A) (A) (A) (A) (A) (A) (A) (A)
                 (A) (A) (A) (A) (A) (A) (A) (A) (A) (A) (A) (A)
                 (A) (A) (A) (A) (A) (A) (A) (A) (A) (A) (A) (A)
                 (A) (A) (A) (A) (A) (A) (A) (A) (A) (A) (A) (A)
                 (A) (A) (A) (A) (A) (A) (A) (A) (A) (A) (A) (A)
                 (A) (A) (A) (A) (A) (A) (A) (A) (A) (A) (A) (A)
                 (A) (A) (A) (A) (A) (A) (A)
 The electronic state is 1-A.
 Alpha  occ. eigenvalues -- -256.04328 -29.98638 -25.86061 -25.84096 -25.84096
 Alpha  occ. eigenvalues --  -10.19253 -10.19253 -10.19226 -10.19226 -10.19226
 Alpha  occ. eigenvalues --  -10.19226 -10.19177 -10.19177 -10.19177 -10.19176
 Alpha  occ. eigenvalues --   -3.39546  -2.19789  -2.15246  -2.15246  -0.89020
 Alpha  occ. eigenvalues --   -0.87557  -0.71242  -0.71240  -0.71171  -0.71169
 Alpha  occ. eigenvalues --   -0.54697  -0.54696  -0.54009  -0.54008  -0.53506
 Alpha  occ. eigenvalues --   -0.52325  -0.41172  -0.40845  -0.40843  -0.40039
 Alpha  occ. eigenvalues --   -0.40037  -0.37948  -0.37947  -0.37842  -0.37841
 Alpha  occ. eigenvalues --   -0.36250  -0.26959  -0.26957  -0.25127  -0.25125
 Alpha  occ. eigenvalues --   -0.23030  -0.19927  -0.19926
 Alpha virt. eigenvalues --   -0.01356  -0.01356  -0.01168   0.00080   0.00080
 Alpha virt. eigenvalues --    0.00459   0.02243   0.02244   0.03060   0.03150
 Alpha virt. eigenvalues --    0.03151   0.04018   0.04018   0.04742   0.04822
 Alpha virt. eigenvalues --    0.04822   0.05019   0.05109   0.05109   0.05799
 Alpha virt. eigenvalues --    0.05800   0.07617   0.08034   0.08035   0.08552
 Alpha virt. eigenvalues --    0.08553   0.09212   0.09215   0.10152   0.10877
 Alpha virt. eigenvalues --    0.10878   0.12089   0.12089   0.12457   0.12458
 Alpha virt. eigenvalues --    0.12995   0.13177   0.13177   0.13685   0.13917
 Alpha virt. eigenvalues --    0.13918   0.14016   0.14016   0.14327   0.14328
 Alpha virt. eigenvalues --    0.16689   0.16690   0.17119   0.17120   0.17996
 Alpha virt. eigenvalues --    0.18674   0.18674   0.18851   0.19346   0.20891
 Alpha virt. eigenvalues --    0.21418   0.21419   0.21442   0.21443   0.22336
 Alpha virt. eigenvalues --    0.22572   0.22573   0.23207   0.23208   0.23633
 Alpha virt. eigenvalues --    0.24388   0.24389   0.24761   0.24762   0.25643
 Alpha virt. eigenvalues --    0.25645   0.26688   0.26967   0.28837   0.28838
 Alpha virt. eigenvalues --    0.29545   0.29546   0.29677   0.29679   0.30830
 Alpha virt. eigenvalues --    0.30831   0.32344   0.32345   0.32470   0.32475
 Alpha virt. eigenvalues --    0.33932   0.35712   0.35714   0.38154   0.38516
 Alpha virt. eigenvalues --    0.38517   0.38914   0.38915   0.40009   0.40136
 Alpha virt. eigenvalues --    0.40900   0.40902   0.42427   0.42430   0.44320
 Alpha virt. eigenvalues --    0.45105   0.45107   0.46578   0.46582   0.47201
 Alpha virt. eigenvalues --    0.47201   0.47222   0.47223   0.47348   0.48934
 Alpha virt. eigenvalues --    0.48935   0.49615   0.50652   0.52929   0.52929
 Alpha virt. eigenvalues --    0.53156   0.54742   0.55630   0.55632   0.55669
 Alpha virt. eigenvalues --    0.55670   0.56182   0.56565   0.56761   0.56761
 Alpha virt. eigenvalues --    0.57450   0.57450   0.58755   0.59539   0.59700
 Alpha virt. eigenvalues --    0.59701   0.60151   0.60153   0.61297   0.61299
 Alpha virt. eigenvalues --    0.64307   0.64310   0.64909   0.64911   0.65631
 Alpha virt. eigenvalues --    0.65631   0.66854   0.66888   0.66889   0.67577
 Alpha virt. eigenvalues --    0.67581   0.72622   0.72624   0.74377   0.74378
 Alpha virt. eigenvalues --    0.75483   0.75484   0.76683   0.76683   0.76901
 Alpha virt. eigenvalues --    0.76902   0.78302   0.78535   0.79187   0.79188
 Alpha virt. eigenvalues --    0.81197   0.81202   0.81382   0.81980   0.81987
 Alpha virt. eigenvalues --    0.83462   0.83464   0.83932   0.83934   0.88518
 Alpha virt. eigenvalues --    0.91987   0.91991   0.91992   0.93692   0.93696
 Alpha virt. eigenvalues --    0.94493   0.96535   0.97068   0.97070   1.04396
 Alpha virt. eigenvalues --    1.05314   1.05318   1.05750   1.05758   1.06094
 Alpha virt. eigenvalues --    1.08598   1.08602   1.09520   1.09522   1.12623
 Alpha virt. eigenvalues --    1.12628   1.15011   1.15011   1.17829   1.18873
 Alpha virt. eigenvalues --    1.18874   1.21413   1.21417   1.22597   1.22599
 Alpha virt. eigenvalues --    1.27143   1.27151   1.31355   1.36768   1.37497
 Alpha virt. eigenvalues --    1.37499   1.37553   1.39045   1.39047   1.40238
 Alpha virt. eigenvalues --    1.40241   1.41491   1.41492   1.44985   1.44996
 Alpha virt. eigenvalues --    1.45536   1.46511   1.46514   1.47639   1.47640
 Alpha virt. eigenvalues --    1.52071   1.52074   1.54492   1.54496   1.55705
 Alpha virt. eigenvalues --    1.55706   1.58752   1.58754   1.59227   1.60396
 Alpha virt. eigenvalues --    1.64220   1.65477   1.66393   1.66396   1.70350
 Alpha virt. eigenvalues --    1.70425   1.72480   1.72484   1.73991   1.73994
 Alpha virt. eigenvalues --    1.74633   1.74636   1.77021   1.77023   1.82085
 Alpha virt. eigenvalues --    1.83264   1.83267   1.85424   1.85433   1.85686
 Alpha virt. eigenvalues --    1.85691   1.86897   1.86904   1.86913   1.86925
 Alpha virt. eigenvalues --    1.88306   1.88313   1.96200   1.96833   1.96845
 Alpha virt. eigenvalues --    1.97686   1.97692   2.01699   2.02847   2.02851
 Alpha virt. eigenvalues --    2.07513   2.08616   2.08618   2.11291   2.12685
 Alpha virt. eigenvalues --    2.12690   2.14552   2.14599   2.14605   2.14613
 Alpha virt. eigenvalues --    2.20564   2.20572   2.20999   2.21697   2.21699
 Alpha virt. eigenvalues --    2.22349   2.22350   2.25427   2.25431   2.30315
 Alpha virt. eigenvalues --    2.30320   2.30409   2.38893   2.44256   2.44260
 Alpha virt. eigenvalues --    2.47341   2.47345   2.49027   2.49029   2.52236
 Alpha virt. eigenvalues --    2.52240   2.54868   2.54870   2.57023   2.57037
 Alpha virt. eigenvalues --    2.58522   2.58533   2.70804   2.70823   2.72806
 Alpha virt. eigenvalues --    2.72814   2.82925   2.85729   2.88575   2.88869
 Alpha virt. eigenvalues --    3.18400   3.18404   3.18897   3.18903   3.35561
 Alpha virt. eigenvalues --    3.35575   3.62604   3.62615   3.78694   3.97298
 Alpha virt. eigenvalues --    3.97300   4.00087   4.25536   4.25537   4.33291
 Alpha virt. eigenvalues --    4.33301   4.45756   4.51106   4.51112   4.59338
 Alpha virt. eigenvalues --    4.59342
          Condensed to atoms (all electrons):
               1          2          3          4          5          6
     1  C    8.394182  -0.554619   0.128035  -0.175657  -0.018472  -0.555173
     2  C   -0.554619   8.394157  -1.738833  -0.554909   0.127622  -0.173722
     3  H    0.128035  -1.738833   3.078017   0.127925  -0.000779  -0.018969
     4  C   -0.175657  -0.554909   0.127925   8.396122  -1.739664  -0.173422
     5  H   -0.018472   0.127622  -0.000779  -1.739664   3.078599  -0.018483
     6  C   -0.555173  -0.173722  -0.018969  -0.173422  -0.018483   8.393186
     7  H    0.127358  -0.018181   0.025943  -0.018670   0.025958  -1.738833
     8  C   -0.173310  -0.174881  -0.018256  -0.556380   0.127859  -0.556202
     9  H   -0.018238  -0.018534   0.026015   0.127834  -0.000777   0.127266
    10  C   -0.140077  -0.132196   0.000028  -0.067163   0.022723  -0.063862
    11  C   -0.063860  -0.141076   0.001098  -0.131926  -0.000142   0.099212
    12  H    0.022311   0.000933   0.030693   0.000184   0.030358   0.006519
    13  C    0.099404  -0.063579   0.022306  -0.140693   0.001068  -0.067941
    14  H    0.006581   0.022219   0.005446   0.000986   0.030620   0.022716
    15  C   -0.132031  -0.067424   0.022780   0.098981   0.006527  -0.140219
    16  H    0.000091   0.022644   0.005427   0.006591  -0.010380   0.000955
    17  C   -0.068063   0.099372   0.006490  -0.063911   0.022295  -0.131741
    18  H    0.022713   0.006540  -0.010414   0.022242   0.005446  -0.000054
    19  Fe  -0.270784  -0.269485   0.186194  -0.271364   0.187085  -0.269616
    20  H   -1.739267   0.127089  -0.000685  -0.017845   0.026044   0.127890
    21  H    0.001011   0.000013   0.030380   0.022749   0.005426   0.022390
               7          8          9         10         11         12
     1  C    0.127358  -0.173310  -0.018238  -0.140077  -0.063860   0.022311
     2  C   -0.018181  -0.174881  -0.018534  -0.132196  -0.141076   0.000933
     3  H    0.025943  -0.018256   0.026015   0.000028   0.001098   0.030693
     4  C   -0.018670  -0.556380   0.127834  -0.067163  -0.131926   0.000184
     5  H    0.025958   0.127859  -0.000777   0.022723  -0.000142   0.030358
     6  C   -1.738833  -0.556202   0.127266  -0.063862   0.099212   0.006519
     7  H    3.078035   0.128058  -0.000721   0.022186   0.006563  -0.010404
     8  C    0.128058   8.397405  -1.739912   0.098817  -0.067253   0.022774
     9  H   -0.000721  -1.739912   3.078304   0.006673   0.022579   0.005425
    10  C    0.022186   0.098817   0.006673   8.394484  -0.553964   0.128056
    11  C    0.006563  -0.067253   0.022579  -0.553964   8.395975  -1.739599
    12  H   -0.010404   0.022774   0.005425   0.128056  -1.739599   3.078342
    13  C    0.022671  -0.132138   0.000099  -0.175393  -0.556855   0.127853
    14  H    0.005438   0.000108   0.030295  -0.017793   0.127384  -0.000465
    15  C    0.000994  -0.063942   0.022144  -0.555687  -0.175055  -0.018323
    16  H    0.030589   0.022279   0.005433   0.127165  -0.018438   0.026024
    17  C   -0.000029  -0.140369   0.001005  -0.173918  -0.173713  -0.018920
    18  H    0.030314   0.000957   0.030561  -0.018701  -0.018254   0.025970
    19  Fe   0.186929  -0.271626   0.187879  -0.270180  -0.270113   0.186709
    20  H   -0.000810  -0.018839   0.025969   0.000869   0.022253   0.005436
    21  H    0.005439   0.006471  -0.010382  -1.739180   0.127730  -0.000996
              13         14         15         16         17         18
     1  C    0.099404   0.006581  -0.132031   0.000091  -0.068063   0.022713
     2  C   -0.063579   0.022219  -0.067424   0.022644   0.099372   0.006540
     3  H    0.022306   0.005446   0.022780   0.005427   0.006490  -0.010414
     4  C   -0.140693   0.000986   0.098981   0.006591  -0.063911   0.022242
     5  H    0.001068   0.030620   0.006527  -0.010380   0.022295   0.005446
     6  C   -0.067941   0.022716  -0.140219   0.000955  -0.131741  -0.000054
     7  H    0.022671   0.005438   0.000994   0.030589  -0.000029   0.030314
     8  C   -0.132138   0.000108  -0.063942   0.022279  -0.140369   0.000957
     9  H    0.000099   0.030295   0.022144   0.005433   0.001005   0.030561
    10  C   -0.175393  -0.017793  -0.555687   0.127165  -0.173918  -0.018701
    11  C   -0.556855   0.127384  -0.175055  -0.018438  -0.173713  -0.018254
    12  H    0.127853  -0.000465  -0.018323   0.026024  -0.018920   0.025970
    13  C    8.397156  -1.740025  -0.172779  -0.018278  -0.555746   0.127822
    14  H   -1.740025   3.078334  -0.019087   0.025982   0.127986  -0.000956
    15  C   -0.172779  -0.019087   8.395040  -1.739551  -0.555912   0.127442
    16  H   -0.018278   0.025982  -1.739551   3.078046   0.127961  -0.000767
    17  C   -0.555746   0.127986  -0.555912   0.127961   8.393607  -1.738666
    18  H    0.127822  -0.000956   0.127442  -0.000767  -1.738666   3.078032
    19  Fe  -0.271265   0.187412  -0.270462   0.187307  -0.269981   0.187147
    20  H    0.006520  -0.010386   0.000075   0.030317   0.022780   0.005448
    21  H   -0.018783   0.026046   0.127909  -0.000622  -0.018327   0.025964
              19         20         21
     1  C   -0.270784  -1.739267   0.001011
     2  C   -0.269485   0.127089   0.000013
     3  H    0.186194  -0.000685   0.030380
     4  C   -0.271364  -0.017845   0.022749
     5  H    0.187085   0.026044   0.005426
     6  C   -0.269616   0.127890   0.022390
     7  H    0.186929  -0.000810   0.005439
     8  C   -0.271626  -0.018839   0.006471
     9  H    0.187879   0.025969  -0.010382
    10  C   -0.270180   0.000869  -1.739180
    11  C   -0.270113   0.022253   0.127730
    12  H    0.186709   0.005436  -0.000996
    13  C   -0.271265   0.006520  -0.018783
    14  H    0.187412  -0.010386   0.026046
    15  C   -0.270462   0.000075   0.127909
    16  H    0.187307   0.030317  -0.000622
    17  C   -0.269981   0.022780  -0.018327
    18  H    0.187147   0.005448   0.025964
    19  Fe  28.824636   0.186973   0.186686
    20  H    0.186973   3.078474   0.030624
    21  H    0.186686   0.030624   3.078352
 Mulliken charges:
               1
     1  C    1.107863
     2  C    1.106850
     3  H   -0.908844
     4  C    1.107991
     5  H   -0.908932
     6  C    1.108104
     7  H   -0.908826
     8  C    1.108379
     9  H   -0.908916
    10  C    1.107112
    11  C    1.107454
    12  H   -0.908879
    13  C    1.108576
    14  H   -0.908841
    15  C    1.108581
    16  H   -0.908774
    17  C    1.107799
    18  H   -0.908786
    19  Fe  -1.990082
    20  H   -0.908930
    21  H   -0.908900
 Sum of Mulliken charges =  -0.00000
 Mulliken charges with hydrogens summed into heavy atoms:
               1
     1  C    0.198933
     2  C    0.198006
     4  C    0.199059
     6  C    0.199278
     8  C    0.199463
    10  C    0.198212
    11  C    0.198575
    13  C    0.199735
    15  C    0.199807
    17  C    0.199014
    19  Fe  -1.990082
 Electronic spatial extent (au):  <R**2>=           1380.0957
 Charge=              0.0000 electrons
 Dipole moment (field-independent basis, Debye):
    X=             -0.0000    Y=             -0.0006    Z=              0.0000  Tot=              0.0006
 Quadrupole moment (field-independent basis, Debye-Ang):
   XX=            -81.8611   YY=            -68.2539   ZZ=            -68.2574
   XY=             -0.0019   XZ=             -0.0023   YZ=              0.0007
 Traceless Quadrupole moment (field-independent basis, Debye-Ang):
   XX=             -9.0703   YY=              4.5369   ZZ=              4.5334
   XY=             -0.0019   XZ=             -0.0023   YZ=              0.0007
 Octapole moment (field-independent basis, Debye-Ang**2):
  XXX=             -0.0050  YYY=             -0.0025  ZZZ=              0.0018  XYY=              0.0001
  XXY=              0.0231  XXZ=              0.0094  XZZ=             -0.0043  YZZ=              0.0051
  YYZ=             -0.0016  XYZ=              0.0010
 Hexadecapole moment (field-independent basis, Debye-Ang**3):
 XXXX=          -1242.6282 YYYY=           -394.1105 ZZZZ=           -394.1143 XXXY=             -0.0169
 XXXZ=             -0.0220 YYYX=             -0.0124 YYYZ=              0.0013 ZZZX=             -0.0051
 ZZZY=              0.0045 XXYY=           -252.1159 XXZZ=           -252.0982 YYZZ=           -131.3713
 XXYZ=              0.0031 YYXZ=             -0.0099 ZZXY=              0.0019
 N-N= 9.075977730581D+02 E-N=-5.720329283648D+03  KE= 1.646375399497D+03
 1\1\GINC-SCC-YO2\FOpt\RB3LYP\Aug-CC-pVDZ\C10H10Fe1\TANMOY\28-Apr-2021\
 0\\# opt b3lyp/aug-cc-pvdz\\Title Card Required\\0,1\C,-2.3148643495,0
 .4582171448,0.6914187251\C,-2.3957945697,0.5937717386,-0.7295346004\H,
 -1.827095222,1.2906103469,-1.3372964051\C,-3.3304924132,-0.3739688839,
 -1.2129793858\H,-3.5964812262,-0.5398971616,-2.2522758589\C,-3.1996605
 468,-0.5932261722,1.0860614622\H,-3.3483464364,-0.9555328175,2.0984833
 056\C,-3.8273565974,-1.107411927,-0.0909413018\H,-4.536913265,-1.92807
 95511,-0.1290151849\C,0.3058512579,-1.5429545667,-0.3673579034\C,-0.32
 11963814,-2.0555223872,-1.5455638821\H,-0.1716040029,-1.6913176356,-2.
 557175086\C,-1.2057349289,-3.107685995,-1.1530781023\H,-1.8457629939,-
 3.6832523909,-1.8145029827\C,-0.1912911314,-2.2784003617,0.7532713901\
 H,0.0737166448,-2.1136225785,1.7929869465\C,-1.1254531207,-3.245518442
 4,0.2676868854\H,-1.6941980088,-3.9437327683,0.8738472206\Fe,-1.760875
 8662,-1.3254317427,-0.2297653033\H,-1.6742034143,1.0342609855,1.351770
 8671\H,1.0145105118,-0.7216111033,-0.327957376\\Version=ES64L-G16RevB.
 01\State=1-A\HF=-1650.9104465\RMSD=7.406e-09\RMSF=3.958e-05\Dipole=0.0
 000809,0.000122,-0.00018\Quadrupole=-2.1830811,-1.0751192,3.2582003,4.
 9703917,0.7923882,-0.710842\PG=C01 [X(C10H10Fe1)]\\@


 I DO NOT KNOW WHAT I MAY APPEAR TO THE WORLD; BUT TO MYSELF
 I SEEM TO HAVE BEEN ONLY LIKE A BOY PLAYING ON THE SEASHORE,
 AND DIVERTING MYSELF IN NOW AND THEN FINDING A SMOOTHER PEBBLE
 OR A PRETTIER SHELL THAN ORDINARY, WHILST THE GREAT OCEAN OF
 TRUTH LAY ALL UNDISCOVERED BEFORE ME.
                                          -- NEWTON (1642-1726)
 Job cpu time:       0 days  7 hours 59 minutes 42.6 seconds.
 Elapsed time:       0 days  0 hours 30 minutes  5.7 seconds.
 File lengths (MBytes):  RWF=    104 Int=      0 D2E=      0 Chk=     13 Scr=      2
 Normal termination of Gaussian 16 at Wed Apr 28 03:36:50 2021.
