 Entering Gaussian System, Link 0=/usr/local/apps/gaussian-16.B.01/avx2/g16/g16
 Initial command:
 /usr/local/apps/gaussian-16.B.01/avx2/g16/l1.exe "/projectnb/cui-buchem/tanmoy/projects/FERRO/ferro/staggered_c6sh/Gau-239052.inp" -scrdir="/projectnb/cui-buchem/tanmoy/projects/FERRO/ferro/staggered_c6sh/"
 Entering Link 1 = /usr/local/apps/gaussian-16.B.01/avx2/g16/l1.exe PID=    239060.
  
 Copyright (c) 1988-2017, Gaussian, Inc.  All Rights Reserved.
  
 This is part of the Gaussian(R) 16 program.  It is based on
 the Gaussian(R) 09 system (copyright 2009, Gaussian, Inc.),
 the Gaussian(R) 03 system (copyright 2003, Gaussian, Inc.),
 the Gaussian(R) 98 system (copyright 1998, Gaussian, Inc.),
 the Gaussian(R) 94 system (copyright 1995, Gaussian, Inc.),
 the Gaussian 92(TM) system (copyright 1992, Gaussian, Inc.),
 the Gaussian 90(TM) system (copyright 1990, Gaussian, Inc.),
 the Gaussian 88(TM) system (copyright 1988, Gaussian, Inc.),
 the Gaussian 86(TM) system (copyright 1986, Carnegie Mellon
 University), and the Gaussian 82(TM) system (copyright 1983,
 Carnegie Mellon University). Gaussian is a federally registered
 trademark of Gaussian, Inc.
  
 This software contains proprietary and confidential information,
 including trade secrets, belonging to Gaussian, Inc.
  
 This software is provided under written license and may be
 used, copied, transmitted, or stored only in accord with that
 written license.
  
 The following legend is applicable only to US Government
 contracts under FAR:
  
                    RESTRICTED RIGHTS LEGEND
  
 Use, reproduction and disclosure by the US Government is
 subject to restrictions as set forth in subparagraphs (a)
 and (c) of the Commercial Computer Software - Restricted
 Rights clause in FAR 52.227-19.
  
 Gaussian, Inc.
 340 Quinnipiac St., Bldg. 40, Wallingford CT 06492
  
  
 ---------------------------------------------------------------
 Warning -- This program may not be used in any manner that
 competes with the business of Gaussian, Inc. or will provide
 assistance to any competitor of Gaussian, Inc.  The licensee
 of this program is prohibited from giving any competitor of
 Gaussian, Inc. access to this program.  By using this program,
 the user acknowledges that Gaussian, Inc. is engaged in the
 business of creating and licensing software in the field of
 computational chemistry and represents and warrants to the
 licensee that it is not a competitor of Gaussian, Inc. and that
 it will not use this program in any manner prohibited above.
 ---------------------------------------------------------------
  

 Cite this work as:
 Gaussian 16, Revision B.01,
 M. J. Frisch, G. W. Trucks, H. B. Schlegel, G. E. Scuseria, 
 M. A. Robb, J. R. Cheeseman, G. Scalmani, V. Barone, 
 G. A. Petersson, H. Nakatsuji, X. Li, M. Caricato, A. V. Marenich, 
 J. Bloino, B. G. Janesko, R. Gomperts, B. Mennucci, H. P. Hratchian, 
 J. V. Ortiz, A. F. Izmaylov, J. L. Sonnenberg, D. Williams-Young, 
 F. Ding, F. Lipparini, F. Egidi, J. Goings, B. Peng, A. Petrone, 
 T. Henderson, D. Ranasinghe, V. G. Zakrzewski, J. Gao, N. Rega, 
 G. Zheng, W. Liang, M. Hada, M. Ehara, K. Toyota, R. Fukuda, 
 J. Hasegawa, M. Ishida, T. Nakajima, Y. Honda, O. Kitao, H. Nakai, 
 T. Vreven, K. Throssell, J. A. Montgomery, Jr., J. E. Peralta, 
 F. Ogliaro, M. J. Bearpark, J. J. Heyd, E. N. Brothers, K. N. Kudin, 
 V. N. Staroverov, T. A. Keith, R. Kobayashi, J. Normand, 
 K. Raghavachari, A. P. Rendell, J. C. Burant, S. S. Iyengar, 
 J. Tomasi, M. Cossi, J. M. Millam, M. Klene, C. Adamo, R. Cammi, 
 J. W. Ochterski, R. L. Martin, K. Morokuma, O. Farkas, 
 J. B. Foresman, and D. J. Fox, Gaussian, Inc., Wallingford CT, 2016.
 
 ******************************************
 Gaussian 16:  ES64L-G16RevB.01 20-Dec-2017
                28-Apr-2021 
 ******************************************
 %nprocshared=16
 Will use up to   16 processors via shared memory.
 %mem=16GB
 %chk=ferro_gauche.chk
 -----------------------
 # opt b3lyp/aug-cc-pvdz
 -----------------------
 1/18=20,19=15,26=3,38=1/1,3;
 2/9=110,12=2,17=6,18=5,40=1/2;
 3/5=16,7=10,11=2,25=1,30=1,71=1,74=-5/1,2,3;
 4//1;
 5/5=2,38=5/2;
 6/7=2,8=2,9=2,10=2,28=1/1;
 7//1,2,3,16;
 1/18=20,19=15,26=3/3(2);
 2/9=110/2;
 99//99;
 2/9=110/2;
 3/5=16,7=10,11=2,25=1,30=1,71=1,74=-5/1,2,3;
 4/5=5,16=3,69=1/1;
 5/5=2,38=5/2;
 7//1,2,3,16;
 1/18=20,19=15,26=3/3(-5);
 2/9=110/2;
 6/7=2,8=2,9=2,10=2,19=2,28=1/1;
 99/9=1/99;
 -------------------
 Title Card Required
 -------------------
 Symbolic Z-matrix:
 Charge =  0 Multiplicity = 2
 C                     5.09173  -0.57035   0.00201 
 C                     4.41979  -1.0776    1.15726 
 H                     4.67255  -0.85848   2.18992 
 C                     3.33597  -1.89791   0.71312 
 H                     2.62313  -2.41269   1.34965 
 C                     4.42286  -1.07543  -1.15597 
 H                     4.67837  -0.85438  -2.18755 
 C                     3.33787  -1.89657  -0.71625 
 H                     2.62674  -2.41016  -1.35564 
 C                     2.86514   1.9835    0.71448 
 C                     1.77943   1.16264   1.15217 
 H                     1.52602   0.93909   2.18451 
 C                     1.10079   0.6481   -0.00003 
 C                     2.86512   1.98351  -0.71455 
 H                     3.58075   2.49099  -1.35364 
 C                     1.77941   1.16266  -1.15224 
 H                     1.52599   0.93912  -2.18458 
 Fe                    3.10003   0.04472  -0.00004 
 H                     5.94266   0.10353   0.00377 
 H                     3.58077   2.49097   1.35356 
 C                    -0.13048  -0.21511  -0.00003 
 C                    -1.43454   0.60413   0.00005 
 H                    -0.1167   -0.87287   0.88187 
 H                    -0.11677  -0.87278  -0.882 
 C                    -2.69077  -0.27223   0.0001 
 H                    -1.44369   1.26519   0.88068 
 H                    -1.4438    1.26519  -0.88057 
 C                    -3.99433   0.53422   0.00009 
 H                    -2.67263  -0.93441  -0.88104 
 H                    -2.67262  -0.93435   0.88129 
 H                    -4.01171   1.19525   0.88179 
 H                    -4.01166   1.19532  -0.88156 
 C                    -5.2491   -0.34857   0.00002 
 C                    -6.5372    0.47417   0.00008 
 H                    -5.23595  -1.00598   0.88289 
 H                    -5.23594  -1.00584  -0.88295 
 H                    -6.58574   1.11064   0.8923 
 H                    -6.58568   1.11087  -0.89199 
 S                    -8.00224  -0.66254  -0.00011 
 

 GradGradGradGradGradGradGradGradGradGradGradGradGradGradGradGradGradGrad
 Berny optimization.
 Initialization pass.
                           ----------------------------
                           !    Initial Parameters    !
                           ! (Angstroms and Degrees)  !
 --------------------------                            --------------------------
 ! Name  Definition              Value          Derivative Info.                !
 --------------------------------------------------------------------------------
 ! R1    R(1,2)                  1.4295         estimate D2E/DX2                !
 ! R2    R(1,6)                  1.4295         estimate D2E/DX2                !
 ! R3    R(1,18)                 2.0845         estimate D2E/DX2                !
 ! R4    R(1,19)                 1.0855         estimate D2E/DX2                !
 ! R5    R(2,3)                  1.0855         estimate D2E/DX2                !
 ! R6    R(2,4)                  1.43           estimate D2E/DX2                !
 ! R7    R(2,18)                 2.0834         estimate D2E/DX2                !
 ! R8    R(4,5)                  1.0855         estimate D2E/DX2                !
 ! R9    R(4,8)                  1.4294         estimate D2E/DX2                !
 ! R10   R(4,18)                 2.0828         estimate D2E/DX2                !
 ! R11   R(6,7)                  1.0855         estimate D2E/DX2                !
 ! R12   R(6,8)                  1.43           estimate D2E/DX2                !
 ! R13   R(6,18)                 2.0835         estimate D2E/DX2                !
 ! R14   R(8,9)                  1.0855         estimate D2E/DX2                !
 ! R15   R(8,18)                 2.0828         estimate D2E/DX2                !
 ! R16   R(10,11)                1.4297         estimate D2E/DX2                !
 ! R17   R(10,14)                1.429          estimate D2E/DX2                !
 ! R18   R(10,18)                2.0796         estimate D2E/DX2                !
 ! R19   R(10,20)                1.0854         estimate D2E/DX2                !
 ! R20   R(11,12)                1.0862         estimate D2E/DX2                !
 ! R21   R(11,13)                1.4328         estimate D2E/DX2                !
 ! R22   R(11,18)                2.0788         estimate D2E/DX2                !
 ! R23   R(13,16)                1.4328         estimate D2E/DX2                !
 ! R24   R(13,18)                2.0883         estimate D2E/DX2                !
 ! R25   R(13,21)                1.5037         estimate D2E/DX2                !
 ! R26   R(14,15)                1.0854         estimate D2E/DX2                !
 ! R27   R(14,16)                1.4297         estimate D2E/DX2                !
 ! R28   R(14,18)                2.0796         estimate D2E/DX2                !
 ! R29   R(16,17)                1.0862         estimate D2E/DX2                !
 ! R30   R(16,18)                2.0788         estimate D2E/DX2                !
 ! R31   R(21,22)                1.54           estimate D2E/DX2                !
 ! R32   R(21,23)                1.1003         estimate D2E/DX2                !
 ! R33   R(21,24)                1.1003         estimate D2E/DX2                !
 ! R34   R(22,25)                1.5317         estimate D2E/DX2                !
 ! R35   R(22,26)                1.1012         estimate D2E/DX2                !
 ! R36   R(22,27)                1.1012         estimate D2E/DX2                !
 ! R37   R(25,28)                1.5328         estimate D2E/DX2                !
 ! R38   R(25,29)                1.1024         estimate D2E/DX2                !
 ! R39   R(25,30)                1.1024         estimate D2E/DX2                !
 ! R40   R(28,31)                1.1021         estimate D2E/DX2                !
 ! R41   R(28,32)                1.1021         estimate D2E/DX2                !
 ! R42   R(28,33)                1.5342         estimate D2E/DX2                !
 ! R43   R(33,34)                1.5284         estimate D2E/DX2                !
 ! R44   R(33,35)                1.1008         estimate D2E/DX2                !
 ! R45   R(33,36)                1.1008         estimate D2E/DX2                !
 ! R46   R(34,37)                1.097          estimate D2E/DX2                !
 ! R47   R(34,38)                1.097          estimate D2E/DX2                !
 ! R48   R(34,39)                1.8543         estimate D2E/DX2                !
 ! A1    A(2,1,6)              108.0199         estimate D2E/DX2                !
 ! A2    A(2,1,19)             125.9793         estimate D2E/DX2                !
 ! A3    A(6,1,19)             125.9786         estimate D2E/DX2                !
 ! A4    A(18,1,19)            124.4618         estimate D2E/DX2                !
 ! A5    A(1,2,3)              125.997          estimate D2E/DX2                !
 ! A6    A(1,2,4)              107.9884         estimate D2E/DX2                !
 ! A7    A(3,2,4)              125.9982         estimate D2E/DX2                !
 ! A8    A(3,2,18)             124.5549         estimate D2E/DX2                !
 ! A9    A(2,4,5)              125.9902         estimate D2E/DX2                !
 ! A10   A(2,4,8)              108.0016         estimate D2E/DX2                !
 ! A11   A(5,4,8)              125.9945         estimate D2E/DX2                !
 ! A12   A(5,4,18)             124.6601         estimate D2E/DX2                !
 ! A13   A(1,6,7)              125.9975         estimate D2E/DX2                !
 ! A14   A(1,6,8)              107.9883         estimate D2E/DX2                !
 ! A15   A(7,6,8)              125.9978         estimate D2E/DX2                !
 ! A16   A(7,6,18)             124.557          estimate D2E/DX2                !
 ! A17   A(4,8,6)              108.0018         estimate D2E/DX2                !
 ! A18   A(4,8,9)              125.9945         estimate D2E/DX2                !
 ! A19   A(6,8,9)              125.9901         estimate D2E/DX2                !
 ! A20   A(9,8,18)             124.6615         estimate D2E/DX2                !
 ! A21   A(11,10,14)           107.8265         estimate D2E/DX2                !
 ! A22   A(11,10,20)           126.0755         estimate D2E/DX2                !
 ! A23   A(14,10,20)           126.0725         estimate D2E/DX2                !
 ! A24   A(18,10,20)           124.3134         estimate D2E/DX2                !
 ! A25   A(10,11,12)           125.8924         estimate D2E/DX2                !
 ! A26   A(10,11,13)           108.6433         estimate D2E/DX2                !
 ! A27   A(12,11,13)           125.4403         estimate D2E/DX2                !
 ! A28   A(12,11,18)           124.3533         estimate D2E/DX2                !
 ! A29   A(11,13,16)           107.0603         estimate D2E/DX2                !
 ! A30   A(11,13,21)           126.4405         estimate D2E/DX2                !
 ! A31   A(16,13,21)           126.4403         estimate D2E/DX2                !
 ! A32   A(18,13,21)           128.1728         estimate D2E/DX2                !
 ! A33   A(10,14,15)           126.072          estimate D2E/DX2                !
 ! A34   A(10,14,16)           107.8265         estimate D2E/DX2                !
 ! A35   A(15,14,16)           126.0761         estimate D2E/DX2                !
 ! A36   A(15,14,18)           124.3141         estimate D2E/DX2                !
 ! A37   A(13,16,14)           108.6434         estimate D2E/DX2                !
 ! A38   A(13,16,17)           125.4405         estimate D2E/DX2                !
 ! A39   A(14,16,17)           125.8921         estimate D2E/DX2                !
 ! A40   A(17,16,18)           124.354          estimate D2E/DX2                !
 ! A41   A(1,18,4)              67.4317         estimate D2E/DX2                !
 ! A42   A(1,18,8)              67.4314         estimate D2E/DX2                !
 ! A43   A(1,18,10)            112.4999         estimate D2E/DX2                !
 ! A44   A(1,18,11)            139.9185         estimate D2E/DX2                !
 ! A45   A(1,18,14)            112.542          estimate D2E/DX2                !
 ! A46   A(1,18,16)            140.0158         estimate D2E/DX2                !
 ! A47   A(2,18,6)              67.4414         estimate D2E/DX2                !
 ! A48   A(2,18,8)              67.4549         estimate D2E/DX2                !
 ! A49   A(2,18,10)            112.5146         estimate D2E/DX2                !
 ! A50   A(2,18,11)            112.596          estimate D2E/DX2                !
 ! A51   A(2,18,13)            139.6479         estimate D2E/DX2                !
 ! A52   A(2,18,14)            139.874          estimate D2E/DX2                !
 ! A53   A(4,18,6)              67.4548         estimate D2E/DX2                !
 ! A54   A(4,18,10)            139.8812         estimate D2E/DX2                !
 ! A55   A(4,18,11)            112.5673         estimate D2E/DX2                !
 ! A56   A(4,18,13)            112.2058         estimate D2E/DX2                !
 ! A57   A(4,18,16)            139.7591         estimate D2E/DX2                !
 ! A58   A(6,18,10)            139.7814         estimate D2E/DX2                !
 ! A59   A(6,18,13)            139.7456         estimate D2E/DX2                !
 ! A60   A(6,18,14)            112.4784         estimate D2E/DX2                !
 ! A61   A(6,18,16)            112.6419         estimate D2E/DX2                !
 ! A62   A(8,18,11)            139.8516         estimate D2E/DX2                !
 ! A63   A(8,18,13)            112.2482         estimate D2E/DX2                !
 ! A64   A(8,18,14)            139.7915         estimate D2E/DX2                !
 ! A65   A(8,18,16)            112.5313         estimate D2E/DX2                !
 ! A66   A(10,18,13)            67.8206         estimate D2E/DX2                !
 ! A67   A(10,18,16)            67.4994         estimate D2E/DX2                !
 ! A68   A(11,18,14)            67.4995         estimate D2E/DX2                !
 ! A69   A(11,18,16)            67.3207         estimate D2E/DX2                !
 ! A70   A(13,18,14)            67.8204         estimate D2E/DX2                !
 ! A71   A(13,21,22)           112.8285         estimate D2E/DX2                !
 ! A72   A(13,21,23)           109.4463         estimate D2E/DX2                !
 ! A73   A(13,21,24)           109.4462         estimate D2E/DX2                !
 ! A74   A(22,21,23)           109.1826         estimate D2E/DX2                !
 ! A75   A(22,21,24)           109.1824         estimate D2E/DX2                !
 ! A76   A(23,21,24)           106.5595         estimate D2E/DX2                !
 ! A77   A(21,22,25)           112.9616         estimate D2E/DX2                !
 ! A78   A(21,22,26)           109.0523         estimate D2E/DX2                !
 ! A79   A(21,22,27)           109.052          estimate D2E/DX2                !
 ! A80   A(25,22,26)           109.6715         estimate D2E/DX2                !
 ! A81   A(25,22,27)           109.6701         estimate D2E/DX2                !
 ! A82   A(26,22,27)           106.2058         estimate D2E/DX2                !
 ! A83   A(22,25,28)           113.3571         estimate D2E/DX2                !
 ! A84   A(22,25,29)           109.2791         estimate D2E/DX2                !
 ! A85   A(22,25,30)           109.2794         estimate D2E/DX2                !
 ! A86   A(28,25,29)           109.2695         estimate D2E/DX2                !
 ! A87   A(28,25,30)           109.269          estimate D2E/DX2                !
 ! A88   A(29,25,30)           106.1328         estimate D2E/DX2                !
 ! A89   A(25,28,31)           109.2057         estimate D2E/DX2                !
 ! A90   A(25,28,32)           109.2058         estimate D2E/DX2                !
 ! A91   A(25,28,33)           113.1291         estimate D2E/DX2                !
 ! A92   A(31,28,32)           106.2572         estimate D2E/DX2                !
 ! A93   A(31,28,33)           109.4055         estimate D2E/DX2                !
 ! A94   A(32,28,33)           109.4057         estimate D2E/DX2                !
 ! A95   A(28,33,34)           112.3045         estimate D2E/DX2                !
 ! A96   A(28,33,35)           109.5009         estimate D2E/DX2                !
 ! A97   A(28,33,36)           109.5005         estimate D2E/DX2                !
 ! A98   A(34,33,35)           109.36           estimate D2E/DX2                !
 ! A99   A(34,33,36)           109.3603         estimate D2E/DX2                !
 ! A100  A(35,33,36)           106.6532         estimate D2E/DX2                !
 ! A101  A(33,34,37)           110.464          estimate D2E/DX2                !
 ! A102  A(33,34,38)           110.4641         estimate D2E/DX2                !
 ! A103  A(33,34,39)           109.625          estimate D2E/DX2                !
 ! A104  A(37,34,38)           108.8242         estimate D2E/DX2                !
 ! A105  A(37,34,39)           108.7097         estimate D2E/DX2                !
 ! A106  A(38,34,39)           108.71           estimate D2E/DX2                !
 ! A107  L(1,18,13,4,-1)       179.6375         estimate D2E/DX2                !
 ! A108  L(2,18,16,6,-1)       180.0833         estimate D2E/DX2                !
 ! A109  L(4,18,14,1,-1)       179.9737         estimate D2E/DX2                !
 ! A110  L(6,18,11,2,-1)       180.0374         estimate D2E/DX2                !
 ! A111  L(8,18,10,1,-1)       179.9312         estimate D2E/DX2                !
 ! A112  L(1,18,13,4,-2)       180.0906         estimate D2E/DX2                !
 ! A113  L(2,18,16,6,-2)       179.8838         estimate D2E/DX2                !
 ! A114  L(4,18,14,1,-2)       179.925          estimate D2E/DX2                !
 ! A115  L(6,18,11,2,-2)       180.0078         estimate D2E/DX2                !
 ! A116  L(8,18,10,1,-2)       179.9697         estimate D2E/DX2                !
 ! D1    D(6,1,2,3)           -178.5302         estimate D2E/DX2                !
 ! D2    D(6,1,2,4)              0.067          estimate D2E/DX2                !
 ! D3    D(19,1,2,3)            -0.1656         estimate D2E/DX2                !
 ! D4    D(19,1,2,4)           178.4316         estimate D2E/DX2                !
 ! D5    D(2,1,6,7)            178.5318         estimate D2E/DX2                !
 ! D6    D(2,1,6,8)             -0.0671         estimate D2E/DX2                !
 ! D7    D(19,1,6,7)             0.1671         estimate D2E/DX2                !
 ! D8    D(19,1,6,8)          -178.4317         estimate D2E/DX2                !
 ! D9    D(19,1,18,4)         -158.1866         estimate D2E/DX2                !
 ! D10   D(19,1,18,8)          158.1858         estimate D2E/DX2                !
 ! D11   D(19,1,18,10)         -21.7838         estimate D2E/DX2                !
 ! D12   D(19,1,18,11)         -59.4683         estimate D2E/DX2                !
 ! D13   D(19,1,18,14)          21.8884         estimate D2E/DX2                !
 ! D14   D(19,1,18,16)          59.5477         estimate D2E/DX2                !
 ! D15   D(1,2,4,5)           -178.7568         estimate D2E/DX2                !
 ! D16   D(1,2,4,8)             -0.0413         estimate D2E/DX2                !
 ! D17   D(3,2,4,5)             -0.1597         estimate D2E/DX2                !
 ! D18   D(3,2,4,8)            178.5559         estimate D2E/DX2                !
 ! D19   D(3,2,18,6)           158.1832         estimate D2E/DX2                !
 ! D20   D(3,2,18,8)          -158.1827         estimate D2E/DX2                !
 ! D21   D(3,2,18,10)           21.8906         estimate D2E/DX2                !
 ! D22   D(3,2,18,11)          -21.8245         estimate D2E/DX2                !
 ! D23   D(3,2,18,13)          -59.8724         estimate D2E/DX2                !
 ! D24   D(3,2,18,14)           59.5829         estimate D2E/DX2                !
 ! D25   D(2,4,8,6)             -0.0002         estimate D2E/DX2                !
 ! D26   D(2,4,8,9)           -178.7165         estimate D2E/DX2                !
 ! D27   D(5,4,8,6)            178.7153         estimate D2E/DX2                !
 ! D28   D(5,4,8,9)             -0.001          estimate D2E/DX2                !
 ! D29   D(5,4,18,1)           158.1953         estimate D2E/DX2                !
 ! D30   D(5,4,18,6)          -158.2036         estimate D2E/DX2                !
 ! D31   D(5,4,18,10)           59.5739         estimate D2E/DX2                !
 ! D32   D(5,4,18,11)           21.7629         estimate D2E/DX2                !
 ! D33   D(5,4,18,13)          -21.8954         estimate D2E/DX2                !
 ! D34   D(5,4,18,16)          -59.3042         estimate D2E/DX2                !
 ! D35   D(1,6,8,4)              0.0416         estimate D2E/DX2                !
 ! D36   D(1,6,8,9)            178.758          estimate D2E/DX2                !
 ! D37   D(7,6,8,4)           -178.5573         estimate D2E/DX2                !
 ! D38   D(7,6,8,9)              0.1591         estimate D2E/DX2                !
 ! D39   D(7,6,18,2)          -158.1835         estimate D2E/DX2                !
 ! D40   D(7,6,18,4)           158.1819         estimate D2E/DX2                !
 ! D41   D(7,6,18,10)          -59.5041         estimate D2E/DX2                !
 ! D42   D(7,6,18,13)           59.9624         estimate D2E/DX2                !
 ! D43   D(7,6,18,14)          -21.7834         estimate D2E/DX2                !
 ! D44   D(7,6,18,16)           21.9327         estimate D2E/DX2                !
 ! D45   D(9,8,18,1)          -158.1951         estimate D2E/DX2                !
 ! D46   D(9,8,18,2)           158.2035         estimate D2E/DX2                !
 ! D47   D(9,8,18,11)           59.3979         estimate D2E/DX2                !
 ! D48   D(9,8,18,13)           22.0095         estimate D2E/DX2                !
 ! D49   D(9,8,18,14)          -59.4864         estimate D2E/DX2                !
 ! D50   D(9,8,18,16)          -21.6502         estimate D2E/DX2                !
 ! D51   D(14,10,11,12)        178.3404         estimate D2E/DX2                !
 ! D52   D(14,10,11,13)          0.0495         estimate D2E/DX2                !
 ! D53   D(20,10,11,12)          0.0905         estimate D2E/DX2                !
 ! D54   D(20,10,11,13)       -178.2004         estimate D2E/DX2                !
 ! D55   D(11,10,14,15)       -178.2503         estimate D2E/DX2                !
 ! D56   D(11,10,14,16)         -0.0001         estimate D2E/DX2                !
 ! D57   D(20,10,14,15)         -0.0003         estimate D2E/DX2                !
 ! D58   D(20,10,14,16)        178.2499         estimate D2E/DX2                !
 ! D59   D(20,10,18,1)         -21.8408         estimate D2E/DX2                !
 ! D60   D(20,10,18,2)          21.7442         estimate D2E/DX2                !
 ! D61   D(20,10,18,4)          59.3526         estimate D2E/DX2                !
 ! D62   D(20,10,18,6)         -59.4576         estimate D2E/DX2                !
 ! D63   D(20,10,18,13)        157.9549         estimate D2E/DX2                !
 ! D64   D(20,10,18,16)       -158.4021         estimate D2E/DX2                !
 ! D65   D(10,11,13,16)         -0.0792         estimate D2E/DX2                !
 ! D66   D(10,11,13,21)       -177.4225         estimate D2E/DX2                !
 ! D67   D(12,11,13,16)       -178.3798         estimate D2E/DX2                !
 ! D68   D(12,11,13,21)          4.2769         estimate D2E/DX2                !
 ! D69   D(12,11,18,1)         -59.4096         estimate D2E/DX2                !
 ! D70   D(12,11,18,2)         -21.7752         estimate D2E/DX2                !
 ! D71   D(12,11,18,4)          21.8692         estimate D2E/DX2                !
 ! D72   D(12,11,18,8)          59.5568         estimate D2E/DX2                !
 ! D73   D(12,11,18,14)       -158.1655         estimate D2E/DX2                !
 ! D74   D(12,11,18,16)        158.1086         estimate D2E/DX2                !
 ! D75   D(11,13,16,14)          0.0792         estimate D2E/DX2                !
 ! D76   D(11,13,16,17)        178.3798         estimate D2E/DX2                !
 ! D77   D(21,13,16,14)        177.4225         estimate D2E/DX2                !
 ! D78   D(21,13,16,17)         -4.2769         estimate D2E/DX2                !
 ! D79   D(21,13,18,2)         -59.0814         estimate D2E/DX2                !
 ! D80   D(21,13,18,4)         -21.7052         estimate D2E/DX2                !
 ! D81   D(21,13,18,6)          59.16           estimate D2E/DX2                !
 ! D82   D(21,13,18,8)          21.8099         estimate D2E/DX2                !
 ! D83   D(21,13,18,10)       -158.2201         estimate D2E/DX2                !
 ! D84   D(21,13,18,14)        158.22           estimate D2E/DX2                !
 ! D85   D(11,13,21,22)         88.4184         estimate D2E/DX2                !
 ! D86   D(11,13,21,23)        -33.3639         estimate D2E/DX2                !
 ! D87   D(11,13,21,24)       -149.7995         estimate D2E/DX2                !
 ! D88   D(16,13,21,22)        -88.424          estimate D2E/DX2                !
 ! D89   D(16,13,21,23)        149.7937         estimate D2E/DX2                !
 ! D90   D(16,13,21,24)         33.358          estimate D2E/DX2                !
 ! D91   D(18,13,21,22)        179.9967         estimate D2E/DX2                !
 ! D92   D(18,13,21,23)         58.2144         estimate D2E/DX2                !
 ! D93   D(18,13,21,24)        -58.2213         estimate D2E/DX2                !
 ! D94   D(10,14,16,13)         -0.0494         estimate D2E/DX2                !
 ! D95   D(10,14,16,17)       -178.3404         estimate D2E/DX2                !
 ! D96   D(15,14,16,13)        178.2007         estimate D2E/DX2                !
 ! D97   D(15,14,16,17)         -0.0903         estimate D2E/DX2                !
 ! D98   D(15,14,18,1)          21.9534         estimate D2E/DX2                !
 ! D99   D(15,14,18,2)          59.5502         estimate D2E/DX2                !
 ! D100  D(15,14,18,6)         -21.6323         estimate D2E/DX2                !
 ! D101  D(15,14,18,8)         -59.2661         estimate D2E/DX2                !
 ! D102  D(15,14,18,11)        158.4012         estimate D2E/DX2                !
 ! D103  D(15,14,18,13)       -157.9555         estimate D2E/DX2                !
 ! D104  D(17,16,18,1)          59.4986         estimate D2E/DX2                !
 ! D105  D(17,16,18,4)         -59.4779         estimate D2E/DX2                !
 ! D106  D(17,16,18,6)          21.8837         estimate D2E/DX2                !
 ! D107  D(17,16,18,8)         -21.7618         estimate D2E/DX2                !
 ! D108  D(17,16,18,10)        158.165          estimate D2E/DX2                !
 ! D109  D(17,16,18,11)       -158.1087         estimate D2E/DX2                !
 ! D110  D(13,21,22,25)       -179.9981         estimate D2E/DX2                !
 ! D111  D(13,21,22,26)        -57.7828         estimate D2E/DX2                !
 ! D112  D(13,21,22,27)         57.7888         estimate D2E/DX2                !
 ! D113  D(23,21,22,25)        -58.067          estimate D2E/DX2                !
 ! D114  D(23,21,22,26)         64.1482         estimate D2E/DX2                !
 ! D115  D(23,21,22,27)        179.7198         estimate D2E/DX2                !
 ! D116  D(24,21,22,25)         58.0712         estimate D2E/DX2                !
 ! D117  D(24,21,22,26)       -179.7136         estimate D2E/DX2                !
 ! D118  D(24,21,22,27)        -64.142          estimate D2E/DX2                !
 ! D119  D(21,22,25,28)       -179.9961         estimate D2E/DX2                !
 ! D120  D(21,22,25,29)        -57.8636         estimate D2E/DX2                !
 ! D121  D(21,22,25,30)         57.8717         estimate D2E/DX2                !
 ! D122  D(26,22,25,28)         58.1363         estimate D2E/DX2                !
 ! D123  D(26,22,25,29)       -179.7311         estimate D2E/DX2                !
 ! D124  D(26,22,25,30)        -63.9959         estimate D2E/DX2                !
 ! D125  D(27,22,25,28)        -58.13           estimate D2E/DX2                !
 ! D126  D(27,22,25,29)         64.0026         estimate D2E/DX2                !
 ! D127  D(27,22,25,30)        179.7378         estimate D2E/DX2                !
 ! D128  D(22,25,28,31)        -57.9062         estimate D2E/DX2                !
 ! D129  D(22,25,28,32)         57.8962         estimate D2E/DX2                !
 ! D130  D(22,25,28,33)        179.9952         estimate D2E/DX2                !
 ! D131  D(29,25,28,31)        179.9559         estimate D2E/DX2                !
 ! D132  D(29,25,28,32)        -64.2417         estimate D2E/DX2                !
 ! D133  D(29,25,28,33)         57.8572         estimate D2E/DX2                !
 ! D134  D(30,25,28,31)         64.2318         estimate D2E/DX2                !
 ! D135  D(30,25,28,32)       -179.9658         estimate D2E/DX2                !
 ! D136  D(30,25,28,33)        -57.8669         estimate D2E/DX2                !
 ! D137  D(25,28,33,34)        179.9973         estimate D2E/DX2                !
 ! D138  D(25,28,33,35)         58.3027         estimate D2E/DX2                !
 ! D139  D(25,28,33,36)        -58.308          estimate D2E/DX2                !
 ! D140  D(31,28,33,34)         58.0105         estimate D2E/DX2                !
 ! D141  D(31,28,33,35)        -63.6841         estimate D2E/DX2                !
 ! D142  D(31,28,33,36)        179.7051         estimate D2E/DX2                !
 ! D143  D(32,28,33,34)        -58.0157         estimate D2E/DX2                !
 ! D144  D(32,28,33,35)       -179.7102         estimate D2E/DX2                !
 ! D145  D(32,28,33,36)         63.679          estimate D2E/DX2                !
 ! D146  D(28,33,34,37)        -60.2307         estimate D2E/DX2                !
 ! D147  D(28,33,34,38)         60.2238         estimate D2E/DX2                !
 ! D148  D(28,33,34,39)        179.9968         estimate D2E/DX2                !
 ! D149  D(35,33,34,37)         61.5442         estimate D2E/DX2                !
 ! D150  D(35,33,34,38)       -178.0013         estimate D2E/DX2                !
 ! D151  D(35,33,34,39)        -58.2283         estimate D2E/DX2                !
 ! D152  D(36,33,34,37)        177.9946         estimate D2E/DX2                !
 ! D153  D(36,33,34,38)        -61.5508         estimate D2E/DX2                !
 ! D154  D(36,33,34,39)         58.2221         estimate D2E/DX2                !
 --------------------------------------------------------------------------------
 Trust Radius=3.00D-01 FncErr=1.00D-07 GrdErr=1.00D-06 EigMax=2.50D+02 EigMin=1.00D-04
 Number of steps in this run=    234 maximum allowed number of steps=    234.
 GradGradGradGradGradGradGradGradGradGradGradGradGradGradGradGradGradGrad

                          Input orientation:                          
 ---------------------------------------------------------------------
 Center     Atomic      Atomic             Coordinates (Angstroms)
 Number     Number       Type             X           Y           Z
 ---------------------------------------------------------------------
      1          6           0        5.091725   -0.570353    0.002012
      2          6           0        4.419788   -1.077601    1.157258
      3          1           0        4.672546   -0.858476    2.189921
      4          6           0        3.335972   -1.897914    0.713121
      5          1           0        2.623130   -2.412693    1.349645
      6          6           0        4.422859   -1.075426   -1.155967
      7          1           0        4.678366   -0.854384   -2.187545
      8          6           0        3.337873   -1.896571   -0.716253
      9          1           0        2.626737   -2.410164   -1.355637
     10          6           0        2.865137    1.983502    0.714475
     11          6           0        1.779433    1.162643    1.152171
     12          1           0        1.526020    0.939085    2.184513
     13          6           0        1.100792    0.648098   -0.000033
     14          6           0        2.865124    1.983512   -0.714552
     15          1           0        3.580750    2.490992   -1.353638
     16          6           0        1.779414    1.162659   -1.152239
     17          1           0        1.525988    0.939118   -2.184581
     18         26           0        3.100030    0.044722   -0.000035
     19          1           0        5.942664    0.103526    0.003769
     20          1           0        3.580772    2.490966    1.353564
     21          6           0       -0.130484   -0.215114   -0.000032
     22          6           0       -1.434538    0.604134    0.000052
     23          1           0       -0.116704   -0.872873    0.881869
     24          1           0       -0.116765   -0.872784   -0.882000
     25          6           0       -2.690765   -0.272225    0.000101
     26          1           0       -1.443692    1.265188    0.880678
     27          1           0       -1.443796    1.265193   -0.880569
     28          6           0       -3.994328    0.534219    0.000090
     29          1           0       -2.672634   -0.934413   -0.881035
     30          1           0       -2.672617   -0.934346    0.881287
     31          1           0       -4.011715    1.195250    0.881790
     32          1           0       -4.011660    1.195317   -0.881561
     33          6           0       -5.249102   -0.348568    0.000020
     34          6           0       -6.537198    0.474174    0.000077
     35          1           0       -5.235951   -1.005976    0.882894
     36          1           0       -5.235938   -1.005844   -0.882953
     37          1           0       -6.585738    1.110644    0.892300
     38          1           0       -6.585676    1.110868   -0.891990
     39         16           0       -8.002243   -0.662540   -0.000111
 ---------------------------------------------------------------------
                    Distance matrix (angstroms):
                    1          2          3          4          5
     1  C    0.000000
     2  C    1.429473   0.000000
     3  H    2.246257   1.085493   0.000000
     4  C    2.313172   1.429975   2.246731   0.000000
     5  H    3.362186   2.246656   2.705875   1.085497   0.000000
     6  C    1.429474   2.313228   3.362198   2.313288   3.362350
     7  H    2.246263   3.362201   4.377472   3.362267   4.377675
     8  C    2.313170   2.313287   3.362267   1.429376   2.246146
     9  H    3.362184   3.362350   4.377677   2.246146   2.705286
    10  C    3.462293   3.461697   3.677024   3.909869   4.448431
    11  C    3.911192   3.462686   3.678580   3.461587   3.678838
    12  H    4.444768   3.673713   3.623794   3.672803   3.624234
    13  C    4.172790   3.915749   4.452313   3.462195   3.675267
    14  C    3.463155   3.910379   4.447430   4.162381   4.862724
    15  H    3.673236   4.443359   4.996775   4.857356   5.680748
    16  C    3.912420   4.162225   4.860579   3.907627   4.444595
    17  H    4.446816   4.858922   5.680532   4.440886   4.992906
    18  Fe   2.084507   2.083434   2.843322   2.082809   2.843934
    19  H    1.085455   2.246052   2.705163   3.362110   4.377447
    20  H    3.671695   3.671124   3.620804   4.442112   4.996295
    21  C    5.234278   4.773697   5.317791   3.918765   3.772714
    22  C    6.631103   6.200040   6.650656   5.433827   5.233289
    23  H    5.290879   4.549452   4.964688   3.605573   3.177507
    24  H    5.291626   4.978035   5.689851   3.939124   3.854683
    25  C    7.788198   7.248973   7.704372   6.282740   5.885606
    26  H    6.844921   6.320250   6.605485   5.733976   5.503252
    27  H    6.845525   6.634986   7.165718   5.949057   5.919509
    28  C    9.152947   8.644903   9.047080   7.756093   7.368605
    29  H    7.822888   7.380894   7.961671   6.290709   5.933495
    30  H    7.822443   7.099218   7.461213   6.087683   5.518134
    31  H    9.314719   8.736817   9.019168   7.973996   7.566856
    32  H    9.315037   8.967288   9.437558   8.130116   7.875053
    33  C   10.343205   9.765148  10.173238   8.752856   8.249493
    34  C   11.675739  11.126662  11.499119  10.179132   9.698811
    35  H   10.374325   9.659902   9.995418   8.619875   7.997616
    36  H   10.374654   9.869177  10.375082   8.764752   8.290275
    37  H   11.831378  11.224091  11.502618  10.369371   9.870477
    38  H   11.831629  11.406535  11.837401  10.491342  10.111504
    39  S   13.094293  12.482733  12.864094  11.427597  10.852807
                    6          7          8          9         10
     6  C    0.000000
     7  H    1.085494   0.000000
     8  C    1.429973   2.246725   0.000000
     9  H    2.246653   2.705865   1.085497   0.000000
    10  C    3.909232   4.445573   4.162383   4.862767   0.000000
    11  C    4.162230   4.860649   3.908777   4.446569   1.429734
    12  H    4.858882   5.680555   4.442769   4.996169   2.246120
    13  C    3.916995   4.454402   3.463068   3.676838   2.325240
    14  C    3.460995   3.675760   3.908777   4.446595   1.429027
    15  H    3.669817   3.618246   4.440266   4.993143   2.246495
    16  C    3.463645   3.680250   3.460891   3.677552   2.310238
    17  H    3.675363   3.626864   3.671518   3.621669   3.359849
    18  Fe   2.083456   2.843367   2.082824   2.843963   2.079559
    19  H    2.246046   2.705161   3.362106   4.377441   3.675675
    20  H    4.441397   4.993549   4.857327   5.680759   1.085398
    21  C    4.775904   5.321552   3.920430   3.776000   3.783937
    22  C    6.202129   6.654356   5.435304   5.236205   4.571680
    23  H    4.980104   5.693359   3.941580   3.859555   4.132587
    24  H    4.552396   4.969715   3.606957   3.180357   4.427058
    25  C    7.251570   7.709007   6.284595   5.889366   6.038765
    26  H    6.636476   7.168415   5.950653   5.922644   4.371454
    27  H    6.322340   6.609210   5.734816   5.504832   4.650488
    28  C    8.647338   9.051496   7.757774   7.371966   7.047200
    29  H    7.102217   7.466631   6.089261   5.521451   6.459628
    30  H    7.383501   7.966246   6.293171   5.938436   6.261660
    31  H    8.969418   9.441362   8.132007   7.878714   6.923903
    32  H    8.739147   9.023493   7.975132   7.569185   7.103443
    33  C    9.767879  10.178208   8.754742   8.253292   8.472890
    34  C   11.129265  11.503896  10.180893   9.702323   9.549468
    35  H    9.871899  10.379993   8.767034   8.294855   8.636722
    36  H    9.662905  10.000916   8.621567   8.001075   8.781536
    37  H   11.408922  11.841741  10.493276  10.115286   9.492763
    38  H   11.226638  11.507359  10.370747   9.873256   9.626011
    39  S   12.485577  12.869325  11.429520  10.856650  11.207681
                   11         12         13         14         15
    11  C    0.000000
    12  H    1.086244   0.000000
    13  C    1.432789   2.244490   0.000000
    14  C    2.310239   3.359852   2.325239   0.000000
    15  H    3.359811   4.375939   3.373232   1.085397   0.000000
    16  C    2.304410   3.353820   1.432787   1.429733   2.247185
    17  H    3.353820   4.369094   2.244490   2.246114   2.705703
    18  Fe   2.078774   2.837189   2.088304   2.079573   2.836824
    19  H    4.446690   4.996053   4.872402   3.677171   3.622318
    20  H    2.247181   2.705701   3.373231   2.246501   2.707202
    21  C    2.621749   2.974629   1.503721   3.783935   4.788373
    22  C    3.459613   3.694451   2.535711   4.571699   5.526828
    23  H    2.794946   2.771031   2.138551   4.427052   5.475787
    24  H    3.446213   3.922386   2.138549   4.132569   5.020861
    25  C    4.834127   4.901041   3.901653   6.038790   6.985691
    26  H    3.236164   3.259681   2.762399   4.650446   5.633807
    27  H    3.812054   4.280290   2.762441   4.371537   5.193500
    28  C    5.921024   5.950619   5.096392   7.047215   7.939984
    29  H    5.324704   5.525964   4.185600   6.261690   7.145738
    30  H    4.928640   4.778775   4.185627   6.459657   7.472110
    31  H    5.797548   5.694666   5.216772   7.103561   8.020075
    32  H    6.137906   6.335011   5.216676   6.923821   7.716626
    33  C    7.280901   7.234109   6.427635   8.472891   9.373461
    34  C    8.424231   8.366803   7.639970   9.549474  10.405430
    35  H    7.347859   7.155538   6.608315   8.781588   9.745003
    36  H    7.619678   7.675687   6.608269   8.636655   9.496494
    37  H    8.369368   8.215830   7.751964   9.626145  10.502718
    38  H    8.611407   8.677211   7.751873   9.492661  10.270057
    39  S   10.016997   9.905836   9.196903  11.207662  12.080667
                   16         17         18         19         20
    16  C    0.000000
    17  H    1.086244   0.000000
    18  Fe   2.078794   2.837216   0.000000
    19  H    4.448682   4.999412   2.843245   0.000000
    20  H    3.359812   4.375939   2.836803   3.619441   0.000000
    21  C    2.621746   2.974627   3.240947   6.081502   4.788373
    22  C    3.459655   3.694530   4.568944   7.394169   5.526795
    23  H    3.446193   3.922354   3.459352   6.200029   5.020880
    24  H    2.794915   2.770982   3.459400   6.201165   5.475796
    25  C    4.834178   4.901142   5.799462   8.641603   6.985647
    26  H    3.812044   4.280319   4.786502   7.528392   5.193399
    27  H    3.236263   3.259814   4.786569   7.529364   5.633840
    28  C    5.921055   5.950682   7.111225   9.946322   7.939955
    29  H    4.928691   4.778889   5.921023   8.722589   7.472064
    30  H    5.324776   5.526092   5.921043   8.721828   7.145676
    31  H    6.138038   6.335171   7.257978  10.052484   7.716690
    32  H    5.797488   5.694651   7.257899  10.053078   8.019945
    33  C    7.280903   7.234118   8.358390  11.200894   9.373458
    34  C    8.424244   8.366832   9.646792  12.485365  10.405417
    35  H    7.619717   7.675716   8.448202  11.267888   9.496565
    36  H    7.347794   7.155470   8.448171  11.268457   9.744951
    37  H    8.611540   8.677368   9.785017  12.600184  10.270150
    38  H    8.369298   8.215801   9.784945  12.600652  10.502564
    39  S   10.016964   9.905776  11.124778  13.965934  12.080698
                   21         22         23         24         25
    21  C    0.000000
    22  C    1.540040   0.000000
    23  H    1.100266   2.166988   0.000000
    24  H    1.100266   2.166986   1.763869   0.000000
    25  C    2.560918   1.531702   2.786410   2.786440   0.000000
    26  H    2.165978   1.101171   2.516387   3.072246   2.166621
    27  H    2.165974   1.101171   3.072245   2.516338   2.166602
    28  C    3.935834   2.560745   4.218224   4.218203   1.532850
    29  H    2.784975   2.162481   3.105543   2.556612   1.102371
    30  H    2.785042   2.162484   2.556652   3.105696   1.102371
    31  H    4.222640   2.787243   4.410016   4.749564   2.162352
    32  H    4.222551   2.787166   4.749503   4.409904   2.162353
    33  C    5.120357   3.931735   5.233934   5.233894   2.559476
    34  C    6.443687   5.104315   6.619278   6.619238   3.918183
    35  H    5.241261   4.221683   5.120977   5.416517   2.792076
    36  H    5.241227   4.221655   5.416533   5.120902   2.792112
    37  H    6.650127   5.252382   6.766302   6.994980   4.228376
    38  H    6.650062   5.252308   6.994956   6.766224   4.228369
    39  S    7.884464   6.688738   7.937497   7.937424   5.325800
                   26         27         28         29         30
    26  H    0.000000
    27  H    1.761247   0.000000
    28  C    2.795621   2.795549   0.000000
    29  H    3.074439   2.519585   2.163362   0.000000
    30  H    2.519565   3.074428   2.163356   1.762322   0.000000
    31  H    2.568975   3.115286   1.102116   3.071832   2.515624
    32  H    3.115257   2.568815   1.102116   2.515699   3.071829
    33  C    4.226217   4.226111   1.534200   2.785258   2.785326
    34  C    5.229241   5.229148   2.543579   4.206582   4.206596
    35  H    4.420342   4.759039   2.166373   3.112420   2.564335
    36  H    4.759108   4.420176   2.166369   2.564300   3.112598
    37  H    5.144381   5.441187   2.800662   4.758083   4.415271
    38  H    5.441155   5.144208   2.800610   4.415336   4.758092
    39  S    6.892497   6.892357   4.182776   5.408759   5.408850
                   31         32         33         34         35
    31  H    0.000000
    32  H    1.763351   0.000000
    33  C    2.166107   2.166109   0.000000
    34  C    2.770457   2.770501   1.528429   0.000000
    35  H    2.518760   3.075367   1.100829   2.159503   0.000000
    36  H    3.075363   2.518724   1.100830   2.159508   1.765847
    37  H    2.575435   3.127240   2.170728   1.097047   2.510397
    38  H    3.127090   2.575422   2.170729   1.097047   3.074573
    39  S    4.489259   4.489247   2.770986   1.854313   2.924041
                   36         37         38         39
    36  H    0.000000
    37  H    3.074574   0.000000
    38  H    2.510447   1.784290   0.000000
    39  S    2.923989   2.438661   2.438665   0.000000
 Stoichiometry    C16H21FeS(2)
 Framework group  C1[X(C16H21FeS)]
 Deg. of freedom   111
 Full point group                 C1      NOp   1
 Largest Abelian subgroup         C1      NOp   1
 Largest concise Abelian subgroup C1      NOp   1
                         Standard orientation:                         
 ---------------------------------------------------------------------
 Center     Atomic      Atomic             Coordinates (Angstroms)
 Number     Number       Type             X           Y           Z
 ---------------------------------------------------------------------
      1          6           0        5.034798   -0.573590    0.002013
      2          6           0        4.362346   -1.080155    1.157259
      3          1           0        4.615326   -0.861287    2.189922
      4          6           0        3.277697   -1.899367    0.713122
      5          1           0        2.564332   -2.413421    1.349646
      6          6           0        4.365419   -1.077983   -1.155966
      7          1           0        4.621150   -0.857201   -2.187544
      8          6           0        3.279599   -1.898026   -0.716252
      9          1           0        2.567942   -2.410896   -1.355636
     10          6           0        2.810805    1.982526    0.714476
     11          6           0        1.724268    1.162770    1.152172
     12          1           0        1.470628    0.939470    2.184514
     13          6           0        1.045105    0.648915   -0.000032
     14          6           0        2.810793    1.982536   -0.714551
     15          1           0        3.526934    2.489288   -1.353637
     16          6           0        1.724249    1.162786   -1.152238
     17          1           0        1.470596    0.939503   -2.184580
     18         26           0        3.043729    0.043508   -0.000034
     19          1           0        5.886421    0.099424    0.003770
     20          1           0        3.526956    2.489262    1.353565
     21          6           0       -0.187048   -0.213046   -0.000031
     22          6           0       -1.490269    0.607527    0.000053
     23          1           0       -0.173936   -0.870818    0.881870
     24          1           0       -0.173997   -0.870729   -0.881999
     25          6           0       -2.747385   -0.267556    0.000102
     26          1           0       -1.498751    1.268590    0.880679
     27          1           0       -1.498855    1.268595   -0.880568
     28          6           0       -4.050128    0.540212    0.000091
     29          1           0       -2.729927   -0.929762   -0.881034
     30          1           0       -2.729910   -0.929695    0.881288
     31          1           0       -4.066844    1.201261    0.881791
     32          1           0       -4.066789    1.201328   -0.881560
     33          6           0       -5.305799   -0.341299    0.000021
     34          6           0       -6.593058    0.482751    0.000078
     35          1           0       -5.293315   -0.998720    0.882895
     36          1           0       -5.293302   -0.998588   -0.882952
     37          1           0       -6.640951    1.119270    0.892301
     38          1           0       -6.640889    1.119494   -0.891989
     39         16           0       -8.059257   -0.652474   -0.000110
 ---------------------------------------------------------------------
 Rotational constants (GHZ):           1.1395719           0.0918221           0.0886906
 Standard basis: Aug-CC-pVDZ (5D, 7F)
 There are   687 symmetry adapted cartesian basis functions of A   symmetry.
 There are   643 symmetry adapted basis functions of A   symmetry.
   643 basis functions,  1314 primitive gaussians,   687 cartesian basis functions
    80 alpha electrons       79 beta electrons
       nuclear repulsion energy      1713.6673122553 Hartrees.
 NAtoms=   39 NActive=   39 NUniq=   39 SFac= 1.00D+00 NAtFMM=   60 NAOKFM=F Big=F
 Integral buffers will be    131072 words long.
 Raffenetti 2 integral format.
 Two-electron integral symmetry is turned on.
 One-electron integrals computed using PRISM.
 NBasis=   643 RedAO= T EigKep=  2.17D-06  NBF=   643
 NBsUse=   643 1.00D-06 EigRej= -1.00D+00 NBFU=   643
 ExpMin= 1.40D-02 ExpMax= 4.32D+06 ExpMxC= 4.91D+03 IAcc=3 IRadAn=         5 AccDes= 0.00D+00
 Harris functional with IExCor=  402 and IRadAn=       5 diagonalized for initial guess.
 HarFok:  IExCor=  402 AccDes= 0.00D+00 IRadAn=         5 IDoV= 1 UseB2=F ITyADJ=14
 ICtDFT=  3500011 ScaDFX=  1.000000  1.000000  1.000000  1.000000
 FoFCou: FMM=F IPFlag=           0 FMFlag=      100000 FMFlg1=           0
         NFxFlg=           0 DoJE=T BraDBF=F KetDBF=T FulRan=T
         wScrn=  0.000000 ICntrl=       500 IOpCl=  0 I1Cent=   200000004 NGrid=           0
         NMat0=    1 NMatS0=      1 NMatT0=    0 NMatD0=    1 NMtDS0=    0 NMtDT0=    0
 Petite list used in FoFCou.
 Initial guess <Sx>= 0.0000 <Sy>= 0.0000 <Sz>= 0.5000 <S**2>= 0.7500 S= 0.5000
 Requested convergence on RMS density matrix=1.00D-08 within 128 cycles.
 Requested convergence on MAX density matrix=1.00D-06.
 Requested convergence on             energy=1.00D-06.
 No special actions if energy rises.
 EnCoef did     5 forward-backward iterations
 Restarting incremental Fock formation.
 SCF Done:  E(UB3LYP) =  -2284.38436858     A.U. after   28 cycles
            NFock= 28  Conv=0.92D-08     -V/T= 2.0031
 <Sx>= 0.0000 <Sy>= 0.0000 <Sz>= 0.5000 <S**2>= 0.7533 S= 0.5016
 <L.S>=  0.00000000000    
 Annihilation of the first spin contaminant:
 S**2 before annihilation     0.7533,   after     0.7500

 **********************************************************************

            Population analysis using the SCF Density.

 **********************************************************************

 Orbital symmetries:
 Alpha Orbitals:
       Occupied  (A) (A) (A) (A) (A) (A) (A) (A) (A) (A) (A) (A)
                 (A) (A) (A) (A) (A) (A) (A) (A) (A) (A) (A) (A)
                 (A) (A) (A) (A) (A) (A) (A) (A) (A) (A) (A) (A)
                 (A) (A) (A) (A) (A) (A) (A) (A) (A) (A) (A) (A)
                 (A) (A) (A) (A) (A) (A) (A) (A) (A) (A) (A) (A)
                 (A) (A) (A) (A) (A) (A) (A) (A) (A) (A) (A) (A)
                 (A) (A) (A) (A) (A) (A) (A) (A)
       Virtual   (A) (A) (A) (A) (A) (A) (A) (A) (A) (A) (A) (A)
                 (A) (A) (A) (A) (A) (A) (A) (A) (A) (A) (A) (A)
                 (A) (A) (A) (A) (A) (A) (A) (A) (A) (A) (A) (A)
                 (A) (A) (A) (A) (A) (A) (A) (A) (A) (A) (A) (A)
                 (A) (A) (A) (A) (A) (A) (A) (A) (A) (A) (A) (A)
                 (A) (A) (A) (A) (A) (A) (A) (A) (A) (A) (A) (A)
                 (A) (A) (A) (A) (A) (A) (A) (A) (A) (A) (A) (A)
                 (A) (A) (A) (A) (A) (A) (A) (A) (A) (A) (A) (A)
                 (A) (A) (A) (A) (A) (A) (A) (A) (A) (A) (A) (A)
                 (A) (A) (A) (A) (A) (A) (A) (A) (A) (A) (A) (A)
                 (A) (A) (A) (A) (A) (A) (A) (A) (A) (A) (A) (A)
                 (A) (A) (A) (A) (A) (A) (A) (A) (A) (A) (A) (A)
                 (A) (A) (A) (A) (A) (A) (A) (A) (A) (A) (A) (A)
                 (A) (A) (A) (A) (A) (A) (A) (A) (A) (A) (A) (A)
                 (A) (A) (A) (A) (A) (A) (A) (A) (A) (A) (A) (A)
                 (A) (A) (A) (A) (A) (A) (A) (A) (A) (A) (A) (A)
                 (A) (A) (A) (A) (A) (A) (A) (A) (A) (A) (A) (A)
                 (A) (A) (A) (A) (A) (A) (A) (A) (A) (A) (A) (A)
                 (A) (A) (A) (A) (A) (A) (A) (A) (A) (A) (A) (A)
                 (A) (A) (A) (A) (A) (A) (A) (A) (A) (A) (A) (A)
                 (A) (A) (A) (A) (A) (A) (A) (A) (A) (A) (A) (A)
                 (A) (A) (A) (A) (A) (A) (A) (A) (A) (A) (A) (A)
                 (A) (A) (A) (A) (A) (A) (A) (A) (A) (A) (A) (A)
                 (A) (A) (A) (A) (A) (A) (A) (A) (A) (A) (A) (A)
                 (A) (A) (A) (A) (A) (A) (A) (A) (A) (A) (A) (A)
                 (A) (A) (A) (A) (A) (A) (A) (A) (A) (A) (A) (A)
                 (A) (A) (A) (A) (A) (A) (A) (A) (A) (A) (A) (A)
                 (A) (A) (A) (A) (A) (A) (A) (A) (A) (A) (A) (A)
                 (A) (A) (A) (A) (A) (A) (A) (A) (A) (A) (A) (A)
                 (A) (A) (A) (A) (A) (A) (A) (A) (A) (A) (A) (A)
                 (A) (A) (A) (A) (A) (A) (A) (A) (A) (A) (A) (A)
                 (A) (A) (A) (A) (A) (A) (A) (A) (A) (A) (A) (A)
                 (A) (A) (A) (A) (A) (A) (A) (A) (A) (A) (A) (A)
                 (A) (A) (A) (A) (A) (A) (A) (A) (A) (A) (A) (A)
                 (A) (A) (A) (A) (A) (A) (A) (A) (A) (A) (A) (A)
                 (A) (A) (A) (A) (A) (A) (A) (A) (A) (A) (A) (A)
                 (A) (A) (A) (A) (A) (A) (A) (A) (A) (A) (A) (A)
                 (A) (A) (A) (A) (A) (A) (A) (A) (A) (A) (A) (A)
                 (A) (A) (A) (A) (A) (A) (A) (A) (A) (A) (A) (A)
                 (A) (A) (A) (A) (A) (A) (A) (A) (A) (A) (A) (A)
                 (A) (A) (A) (A) (A) (A) (A) (A) (A) (A) (A) (A)
                 (A) (A) (A) (A) (A) (A) (A) (A) (A) (A) (A) (A)
                 (A) (A) (A) (A) (A) (A) (A) (A) (A) (A) (A) (A)
                 (A) (A) (A) (A) (A) (A) (A) (A) (A) (A) (A) (A)
                 (A) (A) (A) (A) (A) (A) (A) (A) (A) (A) (A) (A)
                 (A) (A) (A) (A) (A) (A) (A) (A) (A) (A) (A) (A)
                 (A) (A) (A) (A) (A) (A) (A) (A) (A) (A) (A)
 Beta  Orbitals:
       Occupied  (A) (A) (A) (A) (A) (A) (A) (A) (A) (A) (A) (A)
                 (A) (A) (A) (A) (A) (A) (A) (A) (A) (A) (A) (A)
                 (A) (A) (A) (A) (A) (A) (A) (A) (A) (A) (A) (A)
                 (A) (A) (A) (A) (A) (A) (A) (A) (A) (A) (A) (A)
                 (A) (A) (A) (A) (A) (A) (A) (A) (A) (A) (A) (A)
                 (A) (A) (A) (A) (A) (A) (A) (A) (A) (A) (A) (A)
                 (A) (A) (A) (A) (A) (A) (A)
       Virtual   (A) (A) (A) (A) (A) (A) (A) (A) (A) (A) (A) (A)
                 (A) (A) (A) (A) (A) (A) (A) (A) (A) (A) (A) (A)
                 (A) (A) (A) (A) (A) (A) (A) (A) (A) (A) (A) (A)
                 (A) (A) (A) (A) (A) (A) (A) (A) (A) (A) (A) (A)
                 (A) (A) (A) (A) (A) (A) (A) (A) (A) (A) (A) (A)
                 (A) (A) (A) (A) (A) (A) (A) (A) (A) (A) (A) (A)
                 (A) (A) (A) (A) (A) (A) (A) (A) (A) (A) (A) (A)
                 (A) (A) (A) (A) (A) (A) (A) (A) (A) (A) (A) (A)
                 (A) (A) (A) (A) (A) (A) (A) (A) (A) (A) (A) (A)
                 (A) (A) (A) (A) (A) (A) (A) (A) (A) (A) (A) (A)
                 (A) (A) (A) (A) (A) (A) (A) (A) (A) (A) (A) (A)
                 (A) (A) (A) (A) (A) (A) (A) (A) (A) (A) (A) (A)
                 (A) (A) (A) (A) (A) (A) (A) (A) (A) (A) (A) (A)
                 (A) (A) (A) (A) (A) (A) (A) (A) (A) (A) (A) (A)
                 (A) (A) (A) (A) (A) (A) (A) (A) (A) (A) (A) (A)
                 (A) (A) (A) (A) (A) (A) (A) (A) (A) (A) (A) (A)
                 (A) (A) (A) (A) (A) (A) (A) (A) (A) (A) (A) (A)
                 (A) (A) (A) (A) (A) (A) (A) (A) (A) (A) (A) (A)
                 (A) (A) (A) (A) (A) (A) (A) (A) (A) (A) (A) (A)
                 (A) (A) (A) (A) (A) (A) (A) (A) (A) (A) (A) (A)
                 (A) (A) (A) (A) (A) (A) (A) (A) (A) (A) (A) (A)
                 (A) (A) (A) (A) (A) (A) (A) (A) (A) (A) (A) (A)
                 (A) (A) (A) (A) (A) (A) (A) (A) (A) (A) (A) (A)
                 (A) (A) (A) (A) (A) (A) (A) (A) (A) (A) (A) (A)
                 (A) (A) (A) (A) (A) (A) (A) (A) (A) (A) (A) (A)
                 (A) (A) (A) (A) (A) (A) (A) (A) (A) (A) (A) (A)
                 (A) (A) (A) (A) (A) (A) (A) (A) (A) (A) (A) (A)
                 (A) (A) (A) (A) (A) (A) (A) (A) (A) (A) (A) (A)
                 (A) (A) (A) (A) (A) (A) (A) (A) (A) (A) (A) (A)
                 (A) (A) (A) (A) (A) (A) (A) (A) (A) (A) (A) (A)
                 (A) (A) (A) (A) (A) (A) (A) (A) (A) (A) (A) (A)
                 (A) (A) (A) (A) (A) (A) (A) (A) (A) (A) (A) (A)
                 (A) (A) (A) (A) (A) (A) (A) (A) (A) (A) (A) (A)
                 (A) (A) (A) (A) (A) (A) (A) (A) (A) (A) (A) (A)
                 (A) (A) (A) (A) (A) (A) (A) (A) (A) (A) (A) (A)
                 (A) (A) (A) (A) (A) (A) (A) (A) (A) (A) (A) (A)
                 (A) (A) (A) (A) (A) (A) (A) (A) (A) (A) (A) (A)
                 (A) (A) (A) (A) (A) (A) (A) (A) (A) (A) (A) (A)
                 (A) (A) (A) (A) (A) (A) (A) (A) (A) (A) (A) (A)
                 (A) (A) (A) (A) (A) (A) (A) (A) (A) (A) (A) (A)
                 (A) (A) (A) (A) (A) (A) (A) (A) (A) (A) (A) (A)
                 (A) (A) (A) (A) (A) (A) (A) (A) (A) (A) (A) (A)
                 (A) (A) (A) (A) (A) (A) (A) (A) (A) (A) (A) (A)
                 (A) (A) (A) (A) (A) (A) (A) (A) (A) (A) (A) (A)
                 (A) (A) (A) (A) (A) (A) (A) (A) (A) (A) (A) (A)
                 (A) (A) (A) (A) (A) (A) (A) (A) (A) (A) (A) (A)
                 (A) (A) (A) (A) (A) (A) (A) (A) (A) (A) (A) (A)
 The electronic state is 2-A.
 Alpha  occ. eigenvalues -- -256.04187 -88.89728 -29.98509 -25.85922 -25.83969
 Alpha  occ. eigenvalues --  -25.83964 -10.22658 -10.19598 -10.19227 -10.19201
 Alpha  occ. eigenvalues --  -10.19195 -10.19159 -10.19151 -10.19144 -10.19116
 Alpha  occ. eigenvalues --  -10.19041 -10.18916 -10.18914 -10.18842 -10.18769
 Alpha  occ. eigenvalues --  -10.18532 -10.18369  -7.95551  -5.92606  -5.91640
 Alpha  occ. eigenvalues --   -5.90746  -3.39477  -2.19709  -2.15188  -2.15187
 Alpha  occ. eigenvalues --   -0.89134  -0.87670  -0.82596  -0.79990  -0.76033
 Alpha  occ. eigenvalues --   -0.71526  -0.71211  -0.71199  -0.71146  -0.67198
 Alpha  occ. eigenvalues --   -0.62511  -0.59341  -0.58610  -0.55078  -0.54421
 Alpha  occ. eigenvalues --   -0.54184  -0.53698  -0.52750  -0.50424  -0.49557
 Alpha  occ. eigenvalues --   -0.46796  -0.43755  -0.42870  -0.42406  -0.41310
 Alpha  occ. eigenvalues --   -0.40773  -0.40585  -0.39946  -0.39545  -0.38988
 Alpha  occ. eigenvalues --   -0.38475  -0.37897  -0.37885  -0.37667  -0.35947
 Alpha  occ. eigenvalues --   -0.35815  -0.35356  -0.33877  -0.33826  -0.33021
 Alpha  occ. eigenvalues --   -0.32387  -0.28923  -0.26911  -0.26732  -0.25094
 Alpha  occ. eigenvalues --   -0.24690  -0.24329  -0.22952  -0.19882  -0.19846
 Alpha virt. eigenvalues --   -0.01600  -0.01349  -0.01237  -0.00994  -0.00476
 Alpha virt. eigenvalues --   -0.00361   0.00339   0.00717   0.00763   0.01521
 Alpha virt. eigenvalues --    0.01839   0.02042   0.02297   0.02690   0.02930
 Alpha virt. eigenvalues --    0.03790   0.03852   0.03911   0.04069   0.04144
 Alpha virt. eigenvalues --    0.04570   0.04658   0.04787   0.04888   0.05180
 Alpha virt. eigenvalues --    0.05226   0.05565   0.05596   0.05732   0.06492
 Alpha virt. eigenvalues --    0.06523   0.07130   0.07546   0.07630   0.07821
 Alpha virt. eigenvalues --    0.08017   0.08494   0.08799   0.09084   0.09121
 Alpha virt. eigenvalues --    0.09676   0.09973   0.10109   0.10300   0.10545
 Alpha virt. eigenvalues --    0.10674   0.10764   0.11070   0.11347   0.11393
 Alpha virt. eigenvalues --    0.11777   0.11814   0.12127   0.12536   0.12624
 Alpha virt. eigenvalues --    0.12799   0.12908   0.13407   0.13438   0.13478
 Alpha virt. eigenvalues --    0.13663   0.14216   0.14264   0.14268   0.14539
 Alpha virt. eigenvalues --    0.14767   0.15122   0.15159   0.15849   0.15999
 Alpha virt. eigenvalues --    0.16332   0.16400   0.16711   0.16964   0.17244
 Alpha virt. eigenvalues --    0.17372   0.17594   0.17690   0.18093   0.18334
 Alpha virt. eigenvalues --    0.18607   0.18632   0.18872   0.19125   0.19503
 Alpha virt. eigenvalues --    0.19640   0.19791   0.20008   0.20651   0.21092
 Alpha virt. eigenvalues --    0.21134   0.21175   0.21212   0.21756   0.22054
 Alpha virt. eigenvalues --    0.22273   0.22327   0.22369   0.22833   0.23277
 Alpha virt. eigenvalues --    0.23381   0.23666   0.23694   0.24059   0.24347
 Alpha virt. eigenvalues --    0.24625   0.24693   0.24810   0.25420   0.25433
 Alpha virt. eigenvalues --    0.25668   0.25890   0.26385   0.26612   0.26899
 Alpha virt. eigenvalues --    0.27296   0.27621   0.27914   0.28194   0.28991
 Alpha virt. eigenvalues --    0.29418   0.29449   0.29597   0.29816   0.29940
 Alpha virt. eigenvalues --    0.30356   0.30906   0.30932   0.31174   0.31185
 Alpha virt. eigenvalues --    0.31576   0.32469   0.32641   0.33168   0.33233
 Alpha virt. eigenvalues --    0.33725   0.33758   0.34274   0.34429   0.34662
 Alpha virt. eigenvalues --    0.35335   0.35577   0.36115   0.36459   0.36658
 Alpha virt. eigenvalues --    0.37313   0.37472   0.37643   0.38597   0.38631
 Alpha virt. eigenvalues --    0.38805   0.38895   0.39031   0.39586   0.39756
 Alpha virt. eigenvalues --    0.39957   0.40326   0.41114   0.41186   0.41665
 Alpha virt. eigenvalues --    0.42259   0.42458   0.42535   0.42959   0.43324
 Alpha virt. eigenvalues --    0.43514   0.43753   0.44200   0.44331   0.44881
 Alpha virt. eigenvalues --    0.44994   0.45091   0.45417   0.45443   0.45853
 Alpha virt. eigenvalues --    0.46015   0.46945   0.47355   0.47361   0.47625
 Alpha virt. eigenvalues --    0.47923   0.48687   0.48774   0.49077   0.49371
 Alpha virt. eigenvalues --    0.50079   0.50680   0.50718   0.51367   0.51573
 Alpha virt. eigenvalues --    0.51737   0.51985   0.52359   0.52998   0.53379
 Alpha virt. eigenvalues --    0.53487   0.54620   0.54731   0.54823   0.55295
 Alpha virt. eigenvalues --    0.55765   0.56030   0.56449   0.56650   0.56911
 Alpha virt. eigenvalues --    0.57077   0.57349   0.57367   0.57931   0.58130
 Alpha virt. eigenvalues --    0.58802   0.59100   0.59790   0.59832   0.60204
 Alpha virt. eigenvalues --    0.60325   0.60458   0.60993   0.61095   0.61597
 Alpha virt. eigenvalues --    0.61657   0.62359   0.62983   0.63474   0.64063
 Alpha virt. eigenvalues --    0.64293   0.64510   0.64590   0.65230   0.65252
 Alpha virt. eigenvalues --    0.65556   0.65827   0.66190   0.66468   0.66642
 Alpha virt. eigenvalues --    0.67104   0.67261   0.67398   0.67994   0.68170
 Alpha virt. eigenvalues --    0.68378   0.69114   0.69332   0.70020   0.70963
 Alpha virt. eigenvalues --    0.71016   0.71297   0.71399   0.72500   0.72887
 Alpha virt. eigenvalues --    0.73053   0.73592   0.74381   0.74395   0.74665
 Alpha virt. eigenvalues --    0.75084   0.75596   0.76156   0.76347   0.76954
 Alpha virt. eigenvalues --    0.76997   0.77421   0.77512   0.77650   0.78295
 Alpha virt. eigenvalues --    0.78617   0.78904   0.78970   0.79346   0.79455
 Alpha virt. eigenvalues --    0.80256   0.80693   0.80816   0.81326   0.82274
 Alpha virt. eigenvalues --    0.82307   0.83073   0.83086   0.84189   0.84255
 Alpha virt. eigenvalues --    0.85715   0.85729   0.85980   0.86343   0.86540
 Alpha virt. eigenvalues --    0.87312   0.88221   0.88813   0.89676   0.89834
 Alpha virt. eigenvalues --    0.90003   0.91102   0.91151   0.91830   0.92361
 Alpha virt. eigenvalues --    0.92811   0.93207   0.93372   0.94668   0.95017
 Alpha virt. eigenvalues --    0.95073   0.96129   0.96327   0.96739   0.96920
 Alpha virt. eigenvalues --    0.97054   0.98390   0.98457   0.99679   1.00050
 Alpha virt. eigenvalues --    1.00712   1.02147   1.02413   1.02829   1.03352
 Alpha virt. eigenvalues --    1.04666   1.05407   1.05775   1.06161   1.07348
 Alpha virt. eigenvalues --    1.07847   1.08670   1.09676   1.09968   1.10375
 Alpha virt. eigenvalues --    1.11232   1.11362   1.12500   1.13412   1.13556
 Alpha virt. eigenvalues --    1.14319   1.16479   1.17320   1.17461   1.18446
 Alpha virt. eigenvalues --    1.18874   1.20406   1.22246   1.22531   1.23393
 Alpha virt. eigenvalues --    1.23667   1.24298   1.26534   1.27289   1.27440
 Alpha virt. eigenvalues --    1.28712   1.28974   1.30142   1.30813   1.32457
 Alpha virt. eigenvalues --    1.33477   1.35067   1.37388   1.37651   1.38461
 Alpha virt. eigenvalues --    1.38523   1.39344   1.39882   1.40749   1.41096
 Alpha virt. eigenvalues --    1.41229   1.41580   1.41764   1.43532   1.44505
 Alpha virt. eigenvalues --    1.45432   1.46403   1.46415   1.47208   1.47701
 Alpha virt. eigenvalues --    1.47894   1.49169   1.49603   1.51919   1.52243
 Alpha virt. eigenvalues --    1.53207   1.54707   1.55216   1.55500   1.57371
 Alpha virt. eigenvalues --    1.57689   1.58141   1.59499   1.59863   1.60416
 Alpha virt. eigenvalues --    1.60638   1.60746   1.61774   1.62176   1.63110
 Alpha virt. eigenvalues --    1.63604   1.63632   1.64350   1.64737   1.66545
 Alpha virt. eigenvalues --    1.67501   1.67804   1.69718   1.69840   1.70534
 Alpha virt. eigenvalues --    1.72217   1.72342   1.72992   1.73272   1.73725
 Alpha virt. eigenvalues --    1.75164   1.75636   1.76211   1.76785   1.76971
 Alpha virt. eigenvalues --    1.78250   1.79377   1.79765   1.81130   1.81449
 Alpha virt. eigenvalues --    1.82042   1.82338   1.82572   1.83197   1.83244
 Alpha virt. eigenvalues --    1.83916   1.84228   1.84571   1.85158   1.85536
 Alpha virt. eigenvalues --    1.85824   1.87141   1.87145   1.87560   1.88272
 Alpha virt. eigenvalues --    1.88631   1.90119   1.90757   1.91049   1.91639
 Alpha virt. eigenvalues --    1.91915   1.92370   1.93131   1.93220   1.93780
 Alpha virt. eigenvalues --    1.96330   1.96378   1.97019   1.98348   1.99153
 Alpha virt. eigenvalues --    1.99807   2.00424   2.01231   2.01790   2.01885
 Alpha virt. eigenvalues --    2.02695   2.04615   2.04935   2.05922   2.07027
 Alpha virt. eigenvalues --    2.07733   2.07858   2.09209   2.09781   2.10735
 Alpha virt. eigenvalues --    2.11075   2.11666   2.12701   2.14156   2.14501
 Alpha virt. eigenvalues --    2.15067   2.15905   2.18049   2.18147   2.19729
 Alpha virt. eigenvalues --    2.19935   2.20179   2.20583   2.21763   2.22873
 Alpha virt. eigenvalues --    2.23337   2.24683   2.25496   2.25759   2.27081
 Alpha virt. eigenvalues --    2.27305   2.27868   2.30088   2.30202   2.30722
 Alpha virt. eigenvalues --    2.30887   2.32320   2.32966   2.34639   2.36050
 Alpha virt. eigenvalues --    2.37013   2.38564   2.38607   2.41245   2.41830
 Alpha virt. eigenvalues --    2.43022   2.44854   2.45014   2.45663   2.47289
 Alpha virt. eigenvalues --    2.47395   2.48728   2.49798   2.50377   2.51266
 Alpha virt. eigenvalues --    2.52257   2.53704   2.54243   2.54672   2.55837
 Alpha virt. eigenvalues --    2.56242   2.57737   2.57958   2.59946   2.60221
 Alpha virt. eigenvalues --    2.61354   2.62965   2.63636   2.64580   2.65863
 Alpha virt. eigenvalues --    2.67729   2.70589   2.70987   2.72563   2.73473
 Alpha virt. eigenvalues --    2.73531   2.76282   2.78426   2.79565   2.84824
 Alpha virt. eigenvalues --    2.85753   2.86384   2.87568   2.88078   2.90856
 Alpha virt. eigenvalues --    2.91801   2.97508   2.97639   3.05224   3.15996
 Alpha virt. eigenvalues --    3.19706   3.21780   3.26456   3.30220   3.43527
 Alpha virt. eigenvalues --    3.48217   3.63781   3.69075   3.74327   3.76084
 Alpha virt. eigenvalues --    3.95692   4.00940   4.02736   4.30169   4.34724
 Alpha virt. eigenvalues --    4.35660   4.48985   4.51946   4.52894   4.57593
 Alpha virt. eigenvalues --    4.64406   4.94587   5.09233
  Beta  occ. eigenvalues -- -256.04187 -88.89200 -29.98509 -25.85922 -25.83969
  Beta  occ. eigenvalues --  -25.83964 -10.22685 -10.19598 -10.19227 -10.19201
  Beta  occ. eigenvalues --  -10.19195 -10.19159 -10.19151 -10.19144 -10.19116
  Beta  occ. eigenvalues --  -10.19041 -10.18916 -10.18914 -10.18842 -10.18770
  Beta  occ. eigenvalues --  -10.18533 -10.18370  -7.95007  -5.91308  -5.90852
  Beta  occ. eigenvalues --   -5.90419  -3.39477  -2.19710  -2.15188  -2.15187
  Beta  occ. eigenvalues --   -0.89134  -0.87670  -0.82403  -0.79688  -0.75537
  Beta  occ. eigenvalues --   -0.71211  -0.71200  -0.71146  -0.70866  -0.66362
  Beta  occ. eigenvalues --   -0.61416  -0.58851  -0.58374  -0.55078  -0.54421
  Beta  occ. eigenvalues --   -0.54184  -0.53698  -0.52749  -0.50419  -0.49366
  Beta  occ. eigenvalues --   -0.46533  -0.43696  -0.42595  -0.42291  -0.41199
  Beta  occ. eigenvalues --   -0.40773  -0.40580  -0.39946  -0.39526  -0.38791
  Beta  occ. eigenvalues --   -0.38375  -0.37890  -0.37885  -0.37514  -0.35820
  Beta  occ. eigenvalues --   -0.35691  -0.35171  -0.33875  -0.33790  -0.33016
  Beta  occ. eigenvalues --   -0.32057  -0.26911  -0.26731  -0.25094  -0.24459
  Beta  occ. eigenvalues --   -0.23290  -0.22946  -0.19882  -0.19846
  Beta virt. eigenvalues --   -0.15723  -0.01574  -0.01349  -0.01237  -0.00945
  Beta virt. eigenvalues --   -0.00470  -0.00357   0.00381   0.00739   0.00803
  Beta virt. eigenvalues --    0.01788   0.01915   0.02063   0.02327   0.02751
  Beta virt. eigenvalues --    0.02962   0.03807   0.03888   0.03920   0.04072
  Beta virt. eigenvalues --    0.04146   0.04653   0.04659   0.04794   0.04917
  Beta virt. eigenvalues --    0.05186   0.05302   0.05586   0.05606   0.05740
  Beta virt. eigenvalues --    0.06550   0.06579   0.07144   0.07593   0.07718
  Beta virt. eigenvalues --    0.07894   0.08029   0.08610   0.08878   0.09092
  Beta virt. eigenvalues --    0.09146   0.09735   0.09997   0.10149   0.10327
  Beta virt. eigenvalues --    0.10689   0.10725   0.10783   0.11239   0.11394
  Beta virt. eigenvalues --    0.11430   0.11829   0.11830   0.12141   0.12543
  Beta virt. eigenvalues --    0.12686   0.12807   0.12921   0.13445   0.13505
  Beta virt. eigenvalues --    0.13536   0.13666   0.14232   0.14293   0.14391
  Beta virt. eigenvalues --    0.14573   0.14777   0.15166   0.15241   0.15859
  Beta virt. eigenvalues --    0.16015   0.16362   0.16513   0.16810   0.17041
  Beta virt. eigenvalues --    0.17314   0.17417   0.17616   0.17694   0.18130
  Beta virt. eigenvalues --    0.18351   0.18637   0.18865   0.18892   0.19157
  Beta virt. eigenvalues --    0.19524   0.19657   0.19898   0.20064   0.20665
  Beta virt. eigenvalues --    0.21182   0.21193   0.21307   0.21442   0.21847
  Beta virt. eigenvalues --    0.22157   0.22328   0.22369   0.22388   0.23138
  Beta virt. eigenvalues --    0.23300   0.23420   0.23705   0.23706   0.24134
  Beta virt. eigenvalues --    0.24399   0.24652   0.24711   0.24959   0.25451
  Beta virt. eigenvalues --    0.25466   0.25847   0.25943   0.26407   0.26630
  Beta virt. eigenvalues --    0.26975   0.27488   0.27652   0.28330   0.28391
  Beta virt. eigenvalues --    0.29032   0.29478   0.29575   0.29603   0.29978
  Beta virt. eigenvalues --    0.30363   0.30650   0.30918   0.31070   0.31184
  Beta virt. eigenvalues --    0.31263   0.31813   0.32477   0.32654   0.33257
  Beta virt. eigenvalues --    0.33260   0.33814   0.34286   0.34321   0.34615
  Beta virt. eigenvalues --    0.34789   0.35658   0.35738   0.36148   0.36569
  Beta virt. eigenvalues --    0.36683   0.37483   0.37529   0.37706   0.38617
  Beta virt. eigenvalues --    0.38733   0.38865   0.38967   0.39155   0.39796
  Beta virt. eigenvalues --    0.39812   0.40006   0.40465   0.41202   0.41205
  Beta virt. eigenvalues --    0.41709   0.42288   0.42530   0.42568   0.42966
  Beta virt. eigenvalues --    0.43345   0.43600   0.43782   0.44221   0.44342
  Beta virt. eigenvalues --    0.44896   0.45078   0.45255   0.45623   0.45728
  Beta virt. eigenvalues --    0.45886   0.46053   0.47019   0.47363   0.47473
  Beta virt. eigenvalues --    0.47656   0.48019   0.48780   0.48893   0.49104
  Beta virt. eigenvalues --    0.49547   0.50101   0.50719   0.50734   0.51419
  Beta virt. eigenvalues --    0.51577   0.51733   0.51997   0.52532   0.53109
  Beta virt. eigenvalues --    0.53457   0.53509   0.54748   0.54755   0.54946
  Beta virt. eigenvalues --    0.55311   0.55763   0.56035   0.56476   0.56666
  Beta virt. eigenvalues --    0.57010   0.57086   0.57387   0.57412   0.57943
  Beta virt. eigenvalues --    0.58157   0.58853   0.59120   0.59812   0.59989
  Beta virt. eigenvalues --    0.60211   0.60418   0.60480   0.60998   0.61152
  Beta virt. eigenvalues --    0.61657   0.61676   0.62569   0.62990   0.63559
  Beta virt. eigenvalues --    0.64114   0.64304   0.64539   0.64614   0.65253
  Beta virt. eigenvalues --    0.65280   0.65580   0.65853   0.66201   0.66572
  Beta virt. eigenvalues --    0.66653   0.67182   0.67287   0.67425   0.67996
  Beta virt. eigenvalues --    0.68214   0.68404   0.69152   0.69361   0.70049
  Beta virt. eigenvalues --    0.70975   0.71018   0.71335   0.71457   0.72501
  Beta virt. eigenvalues --    0.72905   0.73448   0.73621   0.74406   0.74484
  Beta virt. eigenvalues --    0.75089   0.75094   0.75756   0.76163   0.76447
  Beta virt. eigenvalues --    0.77015   0.77128   0.77440   0.77660   0.78144
  Beta virt. eigenvalues --    0.78545   0.78732   0.78986   0.79340   0.79593
  Beta virt. eigenvalues --    0.79670   0.80258   0.80700   0.80837   0.81348
  Beta virt. eigenvalues --    0.82436   0.82458   0.83091   0.83329   0.84193
  Beta virt. eigenvalues --    0.84285   0.85733   0.85907   0.86002   0.86462
  Beta virt. eigenvalues --    0.86643   0.87514   0.88315   0.88874   0.89726
  Beta virt. eigenvalues --    0.89856   0.90289   0.91244   0.91300   0.91920
  Beta virt. eigenvalues --    0.93014   0.93104   0.93503   0.93634   0.94820
  Beta virt. eigenvalues --    0.95138   0.95664   0.96492   0.96613   0.96949
  Beta virt. eigenvalues --    0.97126   0.97761   0.98875   0.99581   0.99968
  Beta virt. eigenvalues --    1.01151   1.01810   1.02358   1.02660   1.03421
  Beta virt. eigenvalues --    1.03513   1.04694   1.05734   1.05812   1.06235
  Beta virt. eigenvalues --    1.07385   1.08172   1.08671   1.09702   1.10138
  Beta virt. eigenvalues --    1.10379   1.11363   1.11367   1.12777   1.13438
  Beta virt. eigenvalues --    1.13574   1.14487   1.16483   1.17331   1.17484
  Beta virt. eigenvalues --    1.18449   1.19182   1.20418   1.22257   1.22571
  Beta virt. eigenvalues --    1.23466   1.23689   1.24301   1.26549   1.27297
  Beta virt. eigenvalues --    1.27471   1.28731   1.28980   1.30180   1.30819
  Beta virt. eigenvalues --    1.32506   1.33660   1.35137   1.37496   1.37658
  Beta virt. eigenvalues --    1.38473   1.38543   1.39422   1.39886   1.40818
  Beta virt. eigenvalues --    1.41133   1.41232   1.41587   1.41768   1.43784
  Beta virt. eigenvalues --    1.44511   1.45442   1.46446   1.46461   1.47212
  Beta virt. eigenvalues --    1.47721   1.47895   1.49171   1.49636   1.51960
  Beta virt. eigenvalues --    1.52243   1.53220   1.54712   1.55226   1.55501
  Beta virt. eigenvalues --    1.57387   1.57690   1.58246   1.59499   1.59868
  Beta virt. eigenvalues --    1.60576   1.60699   1.60747   1.61775   1.62174
  Beta virt. eigenvalues --    1.63123   1.63619   1.63720   1.64426   1.64746
  Beta virt. eigenvalues --    1.66549   1.67501   1.67855   1.69847   1.69854
  Beta virt. eigenvalues --    1.70541   1.72225   1.72349   1.73009   1.73276
  Beta virt. eigenvalues --    1.73726   1.75251   1.75659   1.76326   1.76822
  Beta virt. eigenvalues --    1.77035   1.78261   1.79378   1.79802   1.81157
  Beta virt. eigenvalues --    1.81457   1.82043   1.82365   1.82623   1.83226
  Beta virt. eigenvalues --    1.83304   1.83942   1.84258   1.84602   1.85164
  Beta virt. eigenvalues --    1.85544   1.85852   1.87147   1.87172   1.87566
  Beta virt. eigenvalues --    1.88294   1.88652   1.90131   1.90772   1.91057
  Beta virt. eigenvalues --    1.91683   1.91940   1.92405   1.93146   1.93232
  Beta virt. eigenvalues --    1.93828   1.96381   1.96390   1.97031   1.98371
  Beta virt. eigenvalues --    1.99169   1.99815   2.00464   2.01363   2.01829
  Beta virt. eigenvalues --    2.01910   2.02749   2.04664   2.04940   2.05926
  Beta virt. eigenvalues --    2.07048   2.07759   2.07862   2.09229   2.09788
  Beta virt. eigenvalues --    2.10741   2.11102   2.11673   2.12718   2.14221
  Beta virt. eigenvalues --    2.14507   2.15075   2.15936   2.18165   2.18180
  Beta virt. eigenvalues --    2.19781   2.19943   2.20184   2.20697   2.21790
  Beta virt. eigenvalues --    2.22900   2.23342   2.24691   2.25498   2.25764
  Beta virt. eigenvalues --    2.27114   2.27312   2.27878   2.30133   2.30281
  Beta virt. eigenvalues --    2.30752   2.30890   2.32337   2.32973   2.34675
  Beta virt. eigenvalues --    2.36097   2.37025   2.38582   2.38620   2.41248
  Beta virt. eigenvalues --    2.41894   2.43031   2.44857   2.45019   2.45683
[...]
     9  H(1)               0.00000       0.00000       0.00000       0.00000
    10  C(13)             -0.00000      -0.00001      -0.00000      -0.00000
    11  C(13)             -0.00000      -0.00028      -0.00010      -0.00009
    12  H(1)               0.00000       0.00009       0.00003       0.00003
    13  C(13)             -0.00001      -0.00727      -0.00259      -0.00242
    14  C(13)             -0.00000      -0.00001      -0.00000      -0.00000
    15  H(1)              -0.00000      -0.00002      -0.00001      -0.00001
    16  C(13)             -0.00000      -0.00028      -0.00010      -0.00009
    17  H(1)               0.00000       0.00009       0.00003       0.00003
    18  Fe(57)            -0.00000      -0.00024      -0.00008      -0.00008
    19  H(1)              -0.00000      -0.00012      -0.00004      -0.00004
    20  H(1)              -0.00000      -0.00002      -0.00001      -0.00001
    21  C(13)             -0.00003      -0.02914      -0.01040      -0.00972
    22  C(13)             -0.00006      -0.07112      -0.02538      -0.02372
    23  H(1)               0.00000       0.00381       0.00136       0.00127
    24  H(1)               0.00000       0.00381       0.00136       0.00127
    25  C(13)             -0.00018      -0.20141      -0.07187      -0.06718
    26  H(1)              -0.00000      -0.00298      -0.00106      -0.00100
    27  H(1)              -0.00000      -0.00298      -0.00106      -0.00100
    28  C(13)             -0.00076      -0.85318      -0.30444      -0.28459
    29  H(1)               0.00004       0.16774       0.05985       0.05595
    30  H(1)               0.00004       0.16775       0.05986       0.05596
    31  H(1)               0.00016       0.71087       0.25365       0.23712
    32  H(1)               0.00016       0.71087       0.25366       0.23712
    33  C(13)             -0.00180      -2.01944      -0.72059      -0.67361
    34  C(13)             -0.01649     -18.53904      -6.61519      -6.18396
    35  H(1)              -0.00005      -0.20251      -0.07226      -0.06755
    36  H(1)              -0.00005      -0.20250      -0.07226      -0.06755
    37  H(1)               0.01538      68.73493      24.52633      22.92750
    38  H(1)               0.01538      68.73664      24.52694      22.92807
    39  S(33)              0.11074      38.03522      13.57191      12.68718
 --------------------------------------------------------
       Center         ----  Spin Dipole Couplings  ----
                      3XX-RR        3YY-RR        3ZZ-RR
 --------------------------------------------------------
     1   Atom        0.000131     -0.000065     -0.000066
     2   Atom        0.000148     -0.000076     -0.000072
     3   Atom        0.000132     -0.000069     -0.000063
     4   Atom        0.000189     -0.000093     -0.000095
     5   Atom        0.000209     -0.000102     -0.000107
     6   Atom        0.000148     -0.000075     -0.000072
     7   Atom        0.000132     -0.000069     -0.000063
     8   Atom        0.000189     -0.000093     -0.000095
     9   Atom        0.000209     -0.000102     -0.000107
    10   Atom        0.000197     -0.000093     -0.000104
    11   Atom        0.000279     -0.000140     -0.000140
    12   Atom        0.000276     -0.000145     -0.000131
    13   Atom        0.000370     -0.000184     -0.000186
    14   Atom        0.000197     -0.000093     -0.000104
    15   Atom        0.000152     -0.000070     -0.000081
    16   Atom        0.000279     -0.000140     -0.000140
    17   Atom        0.000276     -0.000145     -0.000131
    18   Atom        0.000169     -0.000077     -0.000091
    19   Atom        0.000108     -0.000054     -0.000054
    20   Atom        0.000152     -0.000070     -0.000081
    21   Atom        0.000561     -0.000291     -0.000269
    22   Atom        0.000897     -0.000455     -0.000442
    23   Atom        0.000560     -0.000285     -0.000275
    24   Atom        0.000560     -0.000285     -0.000275
    25   Atom        0.001544     -0.000888     -0.000656
    26   Atom        0.000830     -0.000396     -0.000433
    27   Atom        0.000830     -0.000396     -0.000433
    28   Atom        0.002164     -0.002227      0.000063
    29   Atom        0.001617     -0.000824     -0.000794
    30   Atom        0.001617     -0.000824     -0.000794
    31   Atom        0.002770     -0.001256     -0.001514
    32   Atom        0.002770     -0.001256     -0.001514
    33   Atom        0.008260     -0.003989     -0.004270
    34   Atom       -0.014886     -0.022606      0.037491
    35   Atom        0.007716     -0.003974     -0.003742
    36   Atom        0.007715     -0.003974     -0.003742
    37   Atom        0.000240      0.004632     -0.004872
    38   Atom        0.000240      0.004632     -0.004871
    39   Atom       -1.924080     -1.925113      3.849193
 --------------------------------------------------------
                        XY            XZ            YZ
 --------------------------------------------------------
     1   Atom       -0.000004      0.000000      0.000000
     2   Atom       -0.000011      0.000020     -0.000001
     3   Atom       -0.000006      0.000034     -0.000001
     4   Atom       -0.000037      0.000018     -0.000002
     5   Atom       -0.000060      0.000040     -0.000007
     6   Atom       -0.000011     -0.000020      0.000001
     7   Atom       -0.000006     -0.000034      0.000001
     8   Atom       -0.000037     -0.000018      0.000002
     9   Atom       -0.000060     -0.000040      0.000007
    10   Atom        0.000066      0.000019      0.000005
    11   Atom        0.000071      0.000050      0.000007
    12   Atom        0.000060      0.000096      0.000013
    13   Atom        0.000052     -0.000000     -0.000000
    14   Atom        0.000066     -0.000019     -0.000005
    15   Atom        0.000060     -0.000027     -0.000007
    16   Atom        0.000071     -0.000050     -0.000007
    17   Atom        0.000060     -0.000096     -0.000013
    18   Atom        0.000013     -0.000000     -0.000000
    19   Atom        0.000007      0.000000      0.000000
    20   Atom        0.000060      0.000027      0.000007
    21   Atom        0.000043     -0.000000     -0.000000
    22   Atom        0.000143     -0.000000     -0.000000
    23   Atom       -0.000051      0.000089     -0.000003
    24   Atom       -0.000051     -0.000089      0.000003
    25   Atom        0.000238     -0.000000     -0.000000
    26   Atom        0.000306      0.000162      0.000031
    27   Atom        0.000306     -0.000162     -0.000031
    28   Atom        0.000177     -0.000000     -0.000000
    29   Atom       -0.000270     -0.000367      0.000030
    30   Atom       -0.000270      0.000367     -0.000030
    31   Atom        0.001452      0.000792      0.000336
    32   Atom        0.001452     -0.000792     -0.000336
    33   Atom        0.000311     -0.000000      0.000000
    34   Atom        0.003589      0.000002      0.000000
    35   Atom       -0.002433      0.002676     -0.000485
    36   Atom       -0.002433     -0.002677      0.000485
    37   Atom        0.008064      0.002021      0.007827
    38   Atom        0.008064     -0.002021     -0.007828
    39   Atom       -0.000141      0.000199      0.000034
 --------------------------------------------------------


 ---------------------------------------------------------------------------------
              Anisotropic Spin Dipole Couplings in Principal Axis System
 ---------------------------------------------------------------------------------

       Atom             a.u.   MegaHertz   Gauss  10(-4) cm-1        Axes

              Baa    -0.0001    -0.009    -0.003    -0.003 -0.0002 -0.0009  1.0000
     1 C(13)  Bbb    -0.0001    -0.009    -0.003    -0.003  0.0190  0.9998  0.0009
              Bcc     0.0001     0.018     0.006     0.006  0.9998 -0.0190  0.0001
 
              Baa    -0.0001    -0.010    -0.004    -0.003  0.0555  0.9942 -0.0917
     2 C(13)  Bbb    -0.0001    -0.010    -0.004    -0.003 -0.0858  0.0963  0.9917
              Bcc     0.0002     0.020     0.007     0.007  0.9948 -0.0471  0.0906
 
              Baa    -0.0001    -0.037    -0.013    -0.012  0.0083  0.9903  0.1386
     3 H(1)   Bbb    -0.0001    -0.037    -0.013    -0.012 -0.1703 -0.1352  0.9761
              Bcc     0.0001     0.074     0.026     0.025  0.9854 -0.0317  0.1675
 
              Baa    -0.0001    -0.013    -0.005    -0.004  0.1250  0.9918  0.0262
     4 C(13)  Bbb    -0.0001    -0.013    -0.005    -0.004 -0.0644 -0.0183  0.9978
              Bcc     0.0002     0.026     0.009     0.009  0.9901 -0.1264  0.0616
 
              Baa    -0.0001    -0.060    -0.022    -0.020  0.1856  0.9823 -0.0257
     5 H(1)   Bbb    -0.0001    -0.060    -0.021    -0.020 -0.1147  0.0476  0.9923
              Bcc     0.0002     0.120     0.043     0.040  0.9759 -0.1812  0.1215
 
              Baa    -0.0001    -0.010    -0.004    -0.003  0.0553  0.9942  0.0923
     6 C(13)  Bbb    -0.0001    -0.010    -0.004    -0.003  0.0857 -0.0968  0.9916
              Bcc     0.0002     0.020     0.007     0.007  0.9948 -0.0469 -0.0905
 
              Baa    -0.0001    -0.037    -0.013    -0.012  0.0077  0.9901 -0.1400
     7 H(1)   Bbb    -0.0001    -0.037    -0.013    -0.012  0.1700  0.1367  0.9759
              Bcc     0.0001     0.073     0.026     0.024  0.9854 -0.0313 -0.1673
 
              Baa    -0.0001    -0.013    -0.005    -0.004  0.1249  0.9918 -0.0258
     8 C(13)  Bbb    -0.0001    -0.013    -0.005    -0.004  0.0647  0.0178  0.9977
              Bcc     0.0002     0.026     0.009     0.009  0.9901 -0.1263 -0.0619
 
              Baa    -0.0001    -0.060    -0.022    -0.020  0.1852  0.9824  0.0246
     9 H(1)   Bbb    -0.0001    -0.060    -0.021    -0.020  0.1154 -0.0466  0.9922
              Bcc     0.0002     0.120     0.043     0.040  0.9759 -0.1809 -0.1220
 
              Baa    -0.0001    -0.014    -0.005    -0.005 -0.1980  0.9617 -0.1897
    10 C(13)  Bbb    -0.0001    -0.014    -0.005    -0.005 -0.1004  0.1726  0.9799
              Bcc     0.0002     0.029     0.010     0.010  0.9750  0.2131  0.0624
 
              Baa    -0.0002    -0.020    -0.007    -0.007 -0.1830  0.9563  0.2279
    11 C(13)  Bbb    -0.0001    -0.019    -0.007    -0.006 -0.0728 -0.2444  0.9669
              Bcc     0.0003     0.040     0.014     0.013  0.9804  0.1604  0.1143
 
              Baa    -0.0002    -0.082    -0.029    -0.027 -0.2032  0.9225  0.3281
    12 H(1)   Bbb    -0.0002    -0.081    -0.029    -0.027 -0.1559 -0.3613  0.9193
              Bcc     0.0003     0.163     0.058     0.054  0.9667  0.1356  0.2173
 
              Baa    -0.0002    -0.025    -0.009    -0.008 -0.0933  0.9956 -0.0000
    13 C(13)  Bbb    -0.0002    -0.025    -0.009    -0.008  0.0000  0.0000  1.0000
              Bcc     0.0004     0.050     0.018     0.017  0.9956  0.0933 -0.0000
 
              Baa    -0.0001    -0.014    -0.005    -0.005 -0.1980  0.9617  0.1897
    14 C(13)  Bbb    -0.0001    -0.014    -0.005    -0.005  0.1005 -0.1726  0.9798
              Bcc     0.0002     0.029     0.010     0.010  0.9750  0.2131 -0.0624
 
              Baa    -0.0001    -0.046    -0.016    -0.015 -0.2525  0.9641 -0.0825
    15 H(1)   Bbb    -0.0001    -0.045    -0.016    -0.015  0.0872  0.1076  0.9904
              Bcc     0.0002     0.091     0.032     0.030  0.9637  0.2429 -0.1113
 
              Baa    -0.0002    -0.020    -0.007    -0.007 -0.1830  0.9563 -0.2280
    16 C(13)  Bbb    -0.0001    -0.019    -0.007    -0.006  0.0728  0.2444  0.9669
              Bcc     0.0003     0.040     0.014     0.013  0.9804  0.1604 -0.1144
 
              Baa    -0.0002    -0.082    -0.029    -0.027 -0.2032  0.9225 -0.3281
    17 H(1)   Bbb    -0.0002    -0.081    -0.029    -0.027  0.1560  0.3613  0.9193
              Bcc     0.0003     0.163     0.058     0.054  0.9666  0.1356 -0.2173
 
              Baa    -0.0001    -0.002    -0.001    -0.001  0.0000  0.0005  1.0000
    18 Fe(57) Bbb    -0.0001    -0.001    -0.000    -0.000 -0.0544  0.9985 -0.0005
              Bcc     0.0002     0.003     0.001     0.001  0.9985  0.0544 -0.0000
 
              Baa    -0.0001    -0.029    -0.010    -0.010 -0.0406  0.9992 -0.0067
    19 H(1)   Bbb    -0.0001    -0.029    -0.010    -0.010 -0.0005  0.0067  1.0000
              Bcc     0.0001     0.058     0.021     0.019  0.9992  0.0406  0.0003
 
              Baa    -0.0001    -0.046    -0.016    -0.015 -0.2525  0.9641  0.0826
    20 H(1)   Bbb    -0.0001    -0.045    -0.016    -0.015 -0.0872 -0.1077  0.9904
              Bcc     0.0002     0.091     0.032     0.030  0.9637  0.2429  0.1112
 
              Baa    -0.0003    -0.039    -0.014    -0.013 -0.0498  0.9988  0.0000
    21 C(13)  Bbb    -0.0003    -0.036    -0.013    -0.012  0.0000 -0.0000  1.0000
              Bcc     0.0006     0.076     0.027     0.025  0.9988  0.0498 -0.0000
 
              Baa    -0.0005    -0.063    -0.023    -0.021 -0.1039  0.9946 -0.0000
    22 C(13)  Bbb    -0.0004    -0.059    -0.021    -0.020  0.0000  0.0000  1.0000
              Bcc     0.0009     0.122     0.044     0.041  0.9946  0.1039 -0.0000
 
              Baa    -0.0003    -0.154    -0.055    -0.052  0.0952  0.9206 -0.3786
    23 H(1)   Bbb    -0.0003    -0.151    -0.054    -0.050 -0.0738  0.3858  0.9196
              Bcc     0.0006     0.305     0.109     0.102  0.9927 -0.0596  0.1047
 
              Baa    -0.0003    -0.154    -0.055    -0.052  0.0953  0.9206  0.3786
    24 H(1)   Bbb    -0.0003    -0.151    -0.054    -0.050  0.0739 -0.3858  0.9196
              Bcc     0.0006     0.305     0.109     0.102  0.9927 -0.0596 -0.1048
 
              Baa    -0.0009    -0.122    -0.044    -0.041 -0.0966  0.9953 -0.0000
    25 C(13)  Bbb    -0.0007    -0.088    -0.031    -0.029  0.0000  0.0000  1.0000
              Bcc     0.0016     0.210     0.075     0.070  0.9953  0.0966 -0.0000
 
              Baa    -0.0005    -0.252    -0.090    -0.084 -0.2563  0.8922  0.3719
    26 H(1)   Bbb    -0.0005    -0.240    -0.086    -0.080 -0.0233 -0.3904  0.9204
              Bcc     0.0009     0.492     0.176     0.164  0.9663  0.2272  0.1209
 
              Baa    -0.0005    -0.252    -0.090    -0.084 -0.2563  0.8922 -0.3719
    27 H(1)   Bbb    -0.0005    -0.240    -0.086    -0.080  0.0234  0.3904  0.9204
              Bcc     0.0009     0.492     0.176     0.164  0.9663  0.2272 -0.1209
 
              Baa    -0.0022    -0.300    -0.107    -0.100 -0.0401  0.9992  0.0000
    28 C(13)  Bbb     0.0001     0.008     0.003     0.003  0.0001  0.0000  1.0000
              Bcc     0.0022     0.291     0.104     0.097  0.9992  0.0401 -0.0001
 
              Baa    -0.0009    -0.459    -0.164    -0.153  0.1743  0.7759  0.6062
    29 H(1)   Bbb    -0.0008    -0.448    -0.160    -0.150  0.0485 -0.6217  0.7818
              Bcc     0.0017     0.908     0.324     0.303  0.9835 -0.1069 -0.1460
 
              Baa    -0.0009    -0.459    -0.164    -0.153  0.1743  0.7759 -0.6063
    30 H(1)   Bbb    -0.0008    -0.448    -0.160    -0.150 -0.0485  0.6217  0.7818
              Bcc     0.0017     0.908     0.324     0.303  0.9835 -0.1069  0.1460
 
              Baa    -0.0018    -0.947    -0.338    -0.316 -0.1662  0.8195 -0.5484
    31 H(1)   Bbb    -0.0016    -0.861    -0.307    -0.287 -0.3085  0.4850  0.8183
              Bcc     0.0034     1.808     0.645     0.603  0.9366  0.3052  0.1722
 
              Baa    -0.0018    -0.947    -0.338    -0.316 -0.1662  0.8195  0.5484
    32 H(1)   Bbb    -0.0016    -0.861    -0.307    -0.287  0.3086 -0.4850  0.8183
              Bcc     0.0034     1.808     0.645     0.603  0.9366  0.3052 -0.1723
 
              Baa    -0.0043    -0.573    -0.204    -0.191  0.0000 -0.0001  1.0000
    33 C(13)  Bbb    -0.0040    -0.536    -0.191    -0.179 -0.0253  0.9997  0.0001
              Bcc     0.0083     1.109     0.396     0.370  0.9997  0.0253 -0.0000
 
              Baa    -0.0240    -3.223    -1.150    -1.075 -0.3658  0.9307  0.0000
    34 C(13)  Bbb    -0.0135    -1.808    -0.645    -0.603  0.9307  0.3658 -0.0000
              Bcc     0.0375     5.031     1.795     1.678  0.0000  0.0000  1.0000
 
              Baa    -0.0045    -2.388    -0.852    -0.797  0.2507  0.9180 -0.3072
    35 H(1)   Bbb    -0.0043    -2.303    -0.822    -0.768 -0.1361  0.3476  0.9277
              Bcc     0.0088     4.691     1.674     1.565  0.9585 -0.1907  0.2120
 
              Baa    -0.0045    -2.388    -0.852    -0.797  0.2507  0.9180  0.3072
    36 H(1)   Bbb    -0.0043    -2.303    -0.822    -0.768  0.1361 -0.3476  0.9277
              Bcc     0.0088     4.691     1.674     1.565  0.9585 -0.1908 -0.2121
 
              Baa    -0.0100    -5.325    -1.900    -1.776  0.3030 -0.5745  0.7604
    37 H(1)   Bbb    -0.0039    -2.059    -0.735    -0.687  0.8030 -0.2757 -0.5283
              Bcc     0.0138     7.384     2.635     2.463  0.5132  0.7707  0.3778
 
              Baa    -0.0100    -5.325    -1.900    -1.776 -0.3029  0.5745  0.7604
    38 H(1)   Bbb    -0.0039    -2.059    -0.735    -0.687  0.8031 -0.2757  0.5283
              Bcc     0.0138     7.384     2.635     2.463  0.5131  0.7707 -0.3779
 
              Baa    -1.9251   -78.929   -28.164   -26.328  0.1325  0.9912 -0.0000
    39 S(33)  Bbb    -1.9241   -78.885   -28.148   -26.313  0.9912 -0.1325 -0.0000
              Bcc     3.8492   157.813    56.312    52.641  0.0000  0.0000  1.0000
 

 ---------------------------------------------------------------------------------

 1\1\GINC-SCC-YO2\FOpt\UB3LYP\Aug-CC-pVDZ\C16H21Fe1S1(2)\TANMOY\28-Apr-
 2021\0\\# opt b3lyp/aug-cc-pvdz\\Title Card Required\\0,2\C,5.09633436
 96,-0.5626837564,0.0021484569\C,4.4255501929,-1.0716361003,1.157307947
 4\H,4.6777336104,-0.8519708069,2.189996263\C,3.3437546543,-1.894526902
 5,0.7130315118\H,2.6320917837,-2.4110466138,1.3494654745\C,4.428803234
 6,-1.069300562,-1.1559199611\H,4.6838921004,-0.8475695924,-2.187452296
 \C,3.3457677065,-1.8930851428,-0.7163509232\H,2.635906396,-2.408328327
 6,-1.3558241324\C,2.8634555538,1.985699535,0.7144462678\C,1.7798488711
 ,1.1620916686,1.1521754692\H,1.5271578964,0.9378055939,2.1845383775\C,
 1.1025682088,0.6457258762,-0.0000407411\C,2.8634512284,1.985676462,-0.
 7145818568\H,3.577817727,2.4949449992,-1.3536475765\C,1.7798448517,1.1
 620514102,-1.1522777221\H,1.5271538669,0.9377360628,-2.1846344513\Fe,3
 .1031069855,0.0475620769,-0.0000281408\H,5.9456908148,0.1131838061,0.0
 040204274\H,3.5778216121,2.4949866607,1.3534977184\C,-0.126493073,-0.2
 205542462,-0.0000304871\C,-1.4326186916,0.5953440764,-0.0000070561\H,-
 0.1111145912,-0.8782950741,0.8818675809\H,-0.1111355204,-0.8782822134,
 -0.8819385472\C,-2.6866209451,-0.2842696077,0.0000329324\H,-1.44355106
 43,1.2564291549,0.8805839196\H,-1.4435940828,1.2564146895,-0.880608236
 5\C,-3.9928534139,0.5177722864,0.000054816\H,-2.666915143,-0.946545763
 4,-0.8809884713\H,-2.6668727186,-0.9465231946,0.8810704655\H,-4.011500
 698,1.1800783154,0.8812772866\H,-4.0115481626,1.180050096,-0.881187790
 5\C,-5.2455907141,-0.3679633334,0.0001031807\C,-6.5390069955,0.4476914
 721,0.0001270212\H,-5.2367416181,-1.0268869687,0.8810052328\H,-5.23679
 09562,-1.0269149513,-0.8807783958\H,-6.5944425614,1.1148256443,0.87677
 4975\H,-6.594492235,1.114798455,-0.8765384101\S,-8.0822924803,-0.51894
 01841,0.0001858713\\Version=ES64L-G16RevB.01\State=2-A\HF=-2284.386277
 \S2=0.753267\S2-1=0.\S2A=0.750005\RMSD=3.534e-09\RMSF=1.542e-05\Dipole
 =0.5964289,0.3800988,-0.0000144\Quadrupole=-13.7979019,2.3419646,11.45
 59373,-0.1088331,0.0005206,0.0003889\PG=C01 [X(C16H21Fe1S1)]\\@


 DESK:  A WASTEBASKET WITH DRAWERS.
 Job cpu time:       0 days 15 hours 20 minutes  4.3 seconds.
 Elapsed time:       0 days  0 hours 57 minutes 41.0 seconds.
 File lengths (MBytes):  RWF=    458 Int=      0 D2E=      0 Chk=     42 Scr=      2
 Normal termination of Gaussian 16 at Wed Apr 28 15:26:41 2021.
